Compiler and run-time data
===========================================================================
RASPA 1.8-0
Compiled as a 64-bits application
Compiler: gcc 4.2.1 (Based on Apple Inc. build 5658) (LLVM build 2336.11.00)
Compile Date = Apr 18 2013, Compile Time = 10:46:58

Thu Apr 18 12:24:05 2013
Simulation started on Thursday, April 18.
The start time was 12:24 PM.

Cpu data:    x86_64
Cpu Model:   MacPro5,1
Host name:   server.darkwing.nl
OS release:  12.3.0
OS type:     Darwin
OS version:  12D78


Simulation
===========================================================================
Dimensions: 3
Random number seed: 1366280643
RASPA directory set to: /Users/dubbelda/RASPA/simulations/
String appended to output-files: 
Number of cycles: 1
Number of initializing cycles: 0
Number of equilibration cycles: 0
Print every: 1
Triclinic boundary condition applied
Timestep: 0.000500
Initialization Ensemble: NPT full cell fluctuations (Parinello-Rahman) using the upper triangle of the box-matrix
          (constant number of particles N, constant average pressure P, constant average temperature T)
Production run ensemble: NPT full cell fluctuations (Parinello-Rahman) using the upper triangle of the box-matrix
          (constant number of particles N, constant average pressure P, constant average temperature T)
	Degrees of freedom:                        432
	Translational Degrees of freedom:          432
	Rotational Degrees of freedom:             0
	Degrees of freedom Framework:              432


Mutual consistent basic set of units:
======================================
Unit of temperature: Kelvin
Unit of length:      1e-10 [m]
Unit of time:        1e-12 [s]
Unit of mass:        1.66054e-27 [kg]
Unit of charge:      1.60218e-19 [C/particle]

Derived units and their conversion factors:
===========================================
Unit of energy:              1.66054e-23 [J]
Unit of force:               1.66054e-13 [N]
Unit of pressure:            1.66054e+07 [Pa]
Unit of velocity:            100 [m/s]
Unit of acceleration:        1e-08 [m^2/s]
Unit of diffusion:           1e-08 [m^2/s]
Unit of dipole moment:       1.60218e-29 [C.m]
Unit of electric potential:  0.000103643 [V]
Unit of electric field:      1.03643e+06 [V]
Unit of polarizability:      1.54587e-35 [-]
Unit of Coulomb potential:   167101.0800066561  [K]
Unit of dielectric constant: 0.0000154587       [s^2 C^2/(kg m^3)]
Unit of wave vectors:        5.3088374589       [cm^1]
Boltzmann constant:          0.8314464919       [-]

Internal conversion factors:
===========================================
Energy to Kelvin:                                    1.2027242847
FH correction factor                                 2.0211930949
Heat capacity conversion factor:                    10.0000088723
From Debye to internal units:                        4.8032067991
Isothermal compressibility conversion factor:        0.0000000602

Energy conversion factors:
===========================================
From mdyne/A to kcal/mol/A^2:           143.933
From mdyne/A to kj/mol/A^2:             602.214
From mdyne/A to K/A^2:                  72429.7
From mdyne A/rad^2 to kcal/mol/deg^2:   0.0438444


Properties computed
===========================================================================
Movies: yes
	Movie snapshots are appended to file every 1 cycles
Radial Distribution Function: no
Number of molecules GCMC histogram: no
Histogram of the molecule positions: no
Free energy profiles: no
Pore Size Distribution Function: no
End-to-end distance: no
Histogram of the energy of the system: no
Compute thermodynamic factors: no
Framework spacing histograms: no
Residence times histograms: no
Distance histograms: no
Bend Angle histograms: no
Dihedral angle histograms: no
Angle between planes histograms: no
Molecule properties: no
Infra-red spectra: no
Mean-squared displacement using modified order-N algorithm: no
Velocity-autocorrelation function modified order-N algorithm: no
Rotational velocity-autocorrelation function modified order-N algorithm: no
Molecular orientation-autocorrelation function modified order-N algorithm: no
Mean-squared displacement (conventional algorithm): no
Velocity-autocorrelation function (conventional algorithm): no
3D density grid for adsorbates: no
Compute cation an/or adsorption sites: no
dcTST snapshots: no
Compute pressure and stress: no


VTK
===========================================================================
VTK fractional-range position framework atoms: [-0.001000,1.001000] [-0.001000,1.001000] [-0.001000,1.001000]
VTK fractional-range position framework bonds: [-0.151000,1.151000] [-0.151000,1.151000] [-0.151000,1.151000]
VTK fractional-range com-position adsorbate molecules: [-0.101000,1.101000] [-0.101000,1.101000] [-0.101000,1.101000]
VTK fractional-range com-position cation molecules: [-0.101000,1.101000] [-0.101000,1.101000] [-0.101000,1.101000]
	3D free energy grid made for the full simulation-cell


Thermo/Baro-stat NHC parameters
===========================================================================
External temperature: 300.000000 [K]
Beta: 0.004009 [energy unit]
External Pressure: 0.000000 [Pa]


Thermostat chain-length: 3
Timescale parameter for thermostat: 0.150000 [ps]
Barostat chain-length:   3
Timescale parameter for barostat:   0.150000 [ps]

Number of Yoshida-Suzuki decomposition steps: 5
Number of respa steps: 5


Method and settings for electrostatics
===============================================================================
Dielectric constant of the medium : 1.000000
Charge from charge-equilibration: no
Ewald summation is used (exact solution of a periodic system)
Relative precision                : 1e-08
Alpha convergence parameter       : 0.317887
kvec (x,y,z)                      : 6 6 6


CFC-RXMC parameters
===========================================================================
Number of reactions: 0


Rattle parameters
===========================================================================
Distance constraint type: r^2-r^2_0
Bend angle constraint type: theta-theta_0
Dihedral angle constraint type: phi-phi_0
Inversion-bend angle constraint type: chi-chi_0
Out-of-plane distance constraint type: r-r_0


Spectra parameters
===========================================================================
Compute normal modes: no


Minimization parameters
===========================================================================
Generalized coordinates are: Cartesian center-of-mass, elements of the orientational matrix p1,p2,p3 and strain
Potential derivatives are evaluated: analytically
Translation of the system is removed from the generalized Hessian: no
Rotation of the system is removed from the generalized Hessian: no
Maximum step-length: 0.3
Convergence factor: 1
Maximum number of minimization steps: 10000
Use gradients in the line-minimizations: yes
RMS gradient tolerance: 1e-06
Maximum gradient tolerance: 1e-06

Distance constraints: 0
Angle constraints: 0
Dihedral constraints: 0

Improper dihedral constraints: 0

Inversion-bend constraints: 0

Out-of-plane constraints: 0

Harmonic distance constraints: 0
Harmonic angle constraints: 0
Harmonic dihedral constraints: 0

Dihedral mid-point measurements: 0

Number of fixed framework atoms: 0  (active: 240)
fixed atom-list: 
Number of active framework atoms: 240  (fixed: 0)
active atom-list: 

Fixed adsorbate atoms:  
Fixed adsorbate groups (center-of-mass):  
Fixed adsorbate groups (orientation):  

Fixed cation atoms:  
Fixed cation groups (center-of-mass):  
Fixed cation groups (orientation):  


dcTST parameters
===========================================================================
Free energy profiles computed: no
Free energy profiles written every 5000 cycles
Free energy mapping: mapped to a,b,c-coordinates
BarrierPosition:       0.0000000000       0.0000000000       0.0000000000
BarrierNormal:         0.0000000000       0.0000000000       0.0000000000
Start with a molecule on top of the barrier: no
Maximum distance to barrier (e.g. distance to minumum free energy):       0.0000000000 [A]
Maximum trajectory time:      10.0000000000 [ps]
Each configuration is used with 5 different initial velocities


Cbmc parameters
===========================================================================
Biasing method: using only the VDW part
Number of trial positions:                             10
Number of trial positions coupled Torsion-selection:   100
Number of trial position for the first bead:           10
Number of trial moves per open bead:                   150
Target acceptance ratio small-mc scheme:               0.400000
Energy overlap criteria:                               100000
Minimal Rosenbluth factor:                             1e-150


Pseudo atoms: 9
===========================================================================
Pseudo Atom[   0] Name UNIT     Oxidation: +0       Element: -    pdb-name: H    Scat. Types:   0   1 Mass=1.000000000  B-factor:1.000   
                 Charge=1.000000000          Polarization=0.000000000  [A^3] (considered a charged atom and no polarization)  Interactions:  no
                 Anisotropic factor:    0.000 [-] (Relative), Radius:    1.000 [A], Framework-atom:  no
Pseudo Atom[   1] Name O        Oxidation: +0       Element: O    pdb-name: O    Scat. Types:   9   8 Mass=15.799400000 B-factor:1.000   
                 Charge=0.869020000          Polarization=0.000000000  [A^3] (considered a charged atom and no polarization)  Interactions:  no
                 Anisotropic factor:    0.000 [-] (Relative), Radius:    0.680 [A], Framework-atom: yes (charge from pseudo-atoms file)
Pseudo Atom[   2] Name Oa       Oxidation: +0       Element: O    pdb-name: O    Scat. Types:   9   8 Mass=15.799400000 B-factor:1.000   
                 Charge=0.869020000          Polarization=0.000000000  [A^3] (considered a charged atom and no polarization)  Interactions:  no
                 Anisotropic factor:    0.000 [-] (Relative), Radius:    0.680 [A], Framework-atom:  no
Pseudo Atom[   3] Name shO      Oxidation: +0       Element: O    pdb-name: O    Scat. Types:   9   8 Mass=0.200000000  B-factor:1.000   
                 Charge=-2.869020000         Polarization=0.000000000  [A^3] (considered a charged atom and no polarization)  Interactions: yes
                 Anisotropic factor:    0.000 [-] (Relative), Radius:    0.000 [A], Framework-atom:  no
Pseudo Atom[   4] Name shOa     Oxidation: +0       Element: O    pdb-name: O    Scat. Types:   9   8 Mass=0.200000000  B-factor:1.000   
                 Charge=-2.869020000         Polarization=0.000000000  [A^3] (considered a charged atom and no polarization)  Interactions: yes
                 Anisotropic factor:    0.000 [-] (Relative), Radius:    0.000 [A], Framework-atom:  no
Pseudo Atom[   5] Name Mg       Oxidation: +0       Element: Mg   pdb-name: Mg   Scat. Types:  13  12 Mass=24.305000000 B-factor:1.000   
                 Charge=2.000000000          Polarization=0.000000000  [A^3] (considered a charged atom and no polarization)  Interactions: yes
                 Anisotropic factor:    0.000 [-] (Relative), Radius:    1.180 [A], Framework-atom:  no
Pseudo Atom[   6] Name P        Oxidation: +0       Element: p    pdb-name: P    Scat. Types:  16  15 Mass=30.973762000 B-factor:1.000   
                 Charge=5.000000000          Polarization=0.000000000  [A^3] (considered a charged atom and no polarization)  Interactions: yes
                 Anisotropic factor:    0.000 [-] (Relative), Radius:    1.180 [A], Framework-atom:  no
Pseudo Atom[   7] Name Si       Oxidation: +0       Element: Si   pdb-name: Si   Scat. Types:  15  14 Mass=28.085500000 B-factor:1.000   
                 Charge=4.000000000          Polarization=0.000000000  [A^3] (considered a charged atom and no polarization)  Interactions: yes
                 Anisotropic factor:    0.000 [-] (Relative), Radius:    1.180 [A], Framework-atom: yes (charge from pseudo-atoms file)
Pseudo Atom[   8] Name Al       Oxidation: +0       Element: Al   pdb-name: Al   Scat. Types:  14  13 Mass=26.981538600 B-factor:1.000   
                 Charge=3.000000000          Polarization=0.000000000  [A^3] (considered a charged atom and no polarization)  Interactions: yes
                 Anisotropic factor:    0.000 [-] (Relative), Radius:    1.180 [A], Framework-atom:  no


Forcefield: local
===========================================================================
CutOff VDW : 12.000000 (144.000000)
CutOff VDW switching on: 10.800000 (116.640000)
CutOff charge-charge : 12.000000 (144.000000)
CutOff charge-charge switching on: 7.800000 (60.840000)
CutOff charge-bonddipole : 12.000000 (144.000000)
CutOff charge-bondipole switching on: 8.400000 (70.560000)
CutOff bonddipole-bonddipole : 12.000000 (144.000000)
CutOff bonddipole-bondipole switching on: 9.000000 (81.000000)
Polarization is neglected
All potentials are shifted to zero at the Cutoff

No general mixing rule: all cross term specified individualy
0 cross terms are overwritten using the individual mixing rules from the file 'force_field_mixing_rules.def'
and then 11 terms are overwritten using the specific interactions from the file 'force_field.def'

The force field and all the interactions:
    shO -     shO [BUCKINGHAM] p_0/k_B: 264165308.49759 [K], p_1:  6.71141 [A^-1], p_2/k_B: 323514.32817 [K A^6], shift/k_B: -0.10834 [K]
    shO -    shOa [BUCKINGHAM] p_0/k_B: 264165308.49759 [K], p_1:  6.71141 [A^-1], p_2/k_B: 323522.43171 [K A^6], shift/k_B: -0.10835 [K]
    shO -      Mg [BUCKINGHAM] p_0/k_B: 10984877.43221 [K], p_1:  3.14337 [A^-1], p_2/k_B:  0.00000 [K A^6], shift/k_B:  0.00000 [K]
    shO -       P [BUCKINGHAM] p_0/k_B: 10180855.14820 [K], p_1:  2.78242 [A^-1], p_2/k_B:  0.00000 [K A^6], shift/k_B:  0.00000 [K]
    shO -      Si [BUCKINGHAM] p_0/k_B: 14899125.31792 [K], p_1:  3.11993 [A^-1], p_2/k_B: 123722.52547 [K A^6], shift/k_B: -0.04143 [K]
    shO -      Al [BUCKINGHAM] p_0/k_B: 16945657.06900 [K], p_1:  3.34314 [A^-1], p_2/k_B:  0.00000 [K A^6], shift/k_B:  0.00000 [K]
   shOa -    shOa [BUCKINGHAM] p_0/k_B: 264165308.49759 [K], p_1:  6.71141 [A^-1], p_2/k_B: 323514.32817 [K A^6], shift/k_B: -0.10834 [K]
   shOa -      Mg [BUCKINGHAM] p_0/k_B: 10984877.43221 [K], p_1:  3.14337 [A^-1], p_2/k_B:  0.00000 [K A^6], shift/k_B:  0.00000 [K]
   shOa -       P [BUCKINGHAM] p_0/k_B: 10180855.14820 [K], p_1:  2.78242 [A^-1], p_2/k_B:  0.00000 [K A^6], shift/k_B:  0.00000 [K]
   shOa -      Si [BUCKINGHAM] p_0/k_B: 14899125.31792 [K], p_1:  3.11993 [A^-1], p_2/k_B: 123722.52547 [K A^6], shift/k_B: -0.04143 [K]
   shOa -      Al [BUCKINGHAM] p_0/k_B: 16945657.06900 [K], p_1:  3.34314 [A^-1], p_2/k_B:  0.00000 [K A^6], shift/k_B:  0.00000 [K]


MoleculeDefinitions:
===========================================================================
No components defined in 'simulation.input'


Framework Status
===========================================================================
Lowenstein's rule obeyed by framework
	Framework is modelled as: flexible using the model of local
	==================================================================================

	Number of Core/Shell definitions: 2
	--------------------------------------------
	Core/shell pair: core [O] and shell [shO] (96 pairs)
	Core/shell pair: core [Oa] and shell [shOa] (0 pairs)

	Number of Bonds definitions: 2
	--------------------------------------------
	Bond interaction between [O-shO] using bond-type: CORE_SHELL_SPRING (96 bonds)
	  args: 1   arg[0]=869410.688484 
	Bond interaction between [Oa-shOa] using bond-type: CORE_SHELL_SPRING (0 bonds)
	  args: 1   arg[0]=869410.688484 

	Number of Bend definitions: 3
	--------------------------------------------
	Bend interaction between [shO-Si-shO] using bend-type: CORE_SHELL_BEND (288 bends)
	  args: 2   arg[0]=24337.465000 arg[1]=109.470000 
	Bend interaction between [shOa-Si-shO] using bend-type: CORE_SHELL_BEND (0 bends)
	  args: 2   arg[0]=24337.465000 arg[1]=109.470000 
	Bend interaction between [shOa-Al-shOa] using bend-type: CORE_SHELL_BEND (0 bends)
	  args: 2   arg[0]=24337.465000 arg[1]=109.470000 


	Number of core/shells:                           96
	Number of bonds:                                 96
	Number of bond-dipoles:                          0
	Number of bends:                                 288
	Number of Urey-Bradleys:                         0
	Number of Inversion bends:                       0
	Number of Torsions:                              0
	Number of Improper Torsions:                     0
	Number of Out-of-planes:                         0
	Number of bond-bond cross terms:                 0
	Number of bond-bend cross terms:                 0
	Number of bend-bend cross terms:                 0
	Number of stretch-torsion cross terms:           0
	Number of bend-torsion cross terms:              0

	Number of charges:                               144
	Number of bonddipoles:                           0

	Number of Intra VDW:                             431784
	Number of Intra Coulomb charge-charge:           431784
	Number of Intra Coulomb charge-bonddipole:       0
	Number of Intra Coulomb bonddipoles:             0
	Number of excluded Intra VDW:                    96
	Number of excluded intra charge-charge:          96
	Number of excluded intra charge-bonddipole:      0
	Number of excluded intra bonddipole-bonddipole:  0


	Number of 1-2 intra-framework pairs: 456
	Number of 1-3 intra-framework pairs: 1562
	Number of 1-4 intra-framework pairs: 2804
	Number of 1-2,1-3 intra-framework pairs: 1586
	Number of 1-2,1-3,1-4 intra-framework pairs: 2806
	Bond interactions are removed (excluded from VDW and Coulomb interactions)
	Bend interactions are *included* in the VDW and Coulomb interactions
	Torsion interactions are *included* in the VDW and Coulomb interactions
	Remove12NeighboursFromVDWInteraction no
	Remove13NeighboursFromVDWInteraction no
	Remove14NeighboursFromVDWInteraction no
	Remove12NeighboursFromChargeChargeInteraction no
	Remove13NeighboursFromChargeChargeInteraction no
	Remove14NeighboursFromChargeChargeInteraction no
	Remove11NeighboursFromChargeBondDipoleInteraction no
	Remove12NeighboursFromChargeBondDipoleInteraction no
	Remove13NeighboursFromChargeBondDipoleInteraction no
	Remove14NeighboursFromChargeBondDipoleInteraction no
	Remove12NeighboursFromBondDipoleBondDipoleInteraction no
	Remove13NeighboursFromBondDipoleBondDipoleInteraction no
	Remove14NeighboursFromBondDipoleBondDipoleInteraction no
	InternalFrameworkLennardJonesInteractions yes


System Properties
===========================================================================
Unit cell size: 15.031000 15.031000 15.031000
Cell angles (radians)  alpha: 1.570796 beta: 1.570796 gamma: 1.570796
Cell angles (degrees)  alpha: 90.000000 beta: 90.000000 gamma: 90.000000
Number of unitcells [a]: 1
Number of unitcells [b]: 1
Number of unitcells [c]: 1

TRICLINIC Boundary conditions: alpha!=90 or beta!=90 or gamma!=90

Cartesian axis A is collinear with crystallographic axis a
Cartesian axis B is collinear with (axb)xA
Cartesian axis C is collinear with (axb)

lengths of cell vectors:
 15.03100  15.03100  15.03100
cosines of cell angles:
  0.00000   0.00000   0.00000
perpendicular cell widths:
 15.03100  15.03100  15.03100
volume of the cell:  3395.968274791001 (A^3)

Orthogonalization matrix Box
Transforms fractional coordinates abc into orthonormal Cartesian coordinates xyz
Deorthogonalization matrix InverseBox
Transforms orthonormal Cartesian coordinates xyz into fractional coordinates xyz

Box[0]:
	   15.031000000000     0.000000000000     0.000000000000
	    0.000000000000    15.031000000000     0.000000000000
	    0.000000000000     0.000000000000    15.031000000000

Inverse box[0]:
	    0.066529173042    -0.000000000000    -0.000000000000
	    0.000000000000     0.066529173042    -0.000000000000
	    0.000000000000     0.000000000000     0.066529173042


Unitcell box[0]:
	   15.031000000000     0.000000000000     0.000000000000
	    0.000000000000    15.031000000000     0.000000000000
	    0.000000000000     0.000000000000    15.031000000000

Unitcell inverse box[0]:
	    0.066529173042    -0.000000000000    -0.000000000000
	    0.000000000000     0.066529173042    -0.000000000000
	    0.000000000000     0.000000000000     0.066529173042

lengths of cell vectors (inverse box):
  0.06653   0.06653   0.06653
cosines of cell angles (inverse box):
 -0.00000  -0.00000  -0.00000
perpendicular cell widths (inverse):
  0.06653   0.06653   0.06653
volume of the cell:  3395.968274791001 (A^3)

Number of Replica Cells: 2 2 2
Replica Box:
	   30.062000000000     0.000000000000     0.000000000000
	    0.000000000000    30.062000000000     0.000000000000
	    0.000000000000     0.000000000000    30.062000000000

Shift of the Replica cells:
	[cell:  0]     0.000000000000     0.000000000000     0.000000000000
	[cell:  1]     0.000000000000     0.000000000000    15.031000000000
	[cell:  2]     0.000000000000    15.031000000000     0.000000000000
	[cell:  3]     0.000000000000    15.031000000000    15.031000000000
	[cell:  4]    15.031000000000     0.000000000000     0.000000000000
	[cell:  5]    15.031000000000     0.000000000000    15.031000000000
	[cell:  6]    15.031000000000    15.031000000000     0.000000000000
	[cell:  7]    15.031000000000    15.031000000000    15.031000000000

Framework is simulated as 'flexible'
Number of framework atoms: 240
Number of framework atoms in the unit cell: 144
Framework Mass:  2884.046399999976 [g/mol]
Framework Density:  1400.834168156120 [kg/m^3]    0.7091079796874 [cm^3/g]
Helium void fraction:    0.00000000
Available pore volume:    0.00000000 [A^3]    0.00000000 [cm^3/g]
Conversion factor from molecule/unit cell -> kmol/m^3: 0.488974, kmol/m^3 accesible pore volume: inf

Number Of Frameworks (per system): 1
----------------------------------------------------------------------
Framework name: RHO
Citation:
	author name:        'L.B. McCusker and Ch. Baerlocher'
	title:              'The effect of dehydration upon the crystal structure of zeolite rho'
	journal abbrev.:    'J. Solid State Chem.'
	first page:         812
	last page:          822
	year:               1984
	special details:    'Proceedings of the 6th International Zeolite Conference, Reno 1983'
Space group: 229
	Identifier: 529
	short international Hermann-Mauguin symbol: I m -3 m
	long international Hermann-Mauguin symbol: I 4/m -3 2/m
	Hall symbol: -I 4 2 3
	Number of lattice translations: 2 [ (0,0,0) (0.5,0.5,0.5) ]
	acentric/centric: acentric
	chiral: yes
	enantiomorphic: no
	number of operators: 96
		'x,y,z'
		'-x,-y,z'
		'-x,y,-z'
		'x,-y,-z'
		'z,x,y'
		'z,-x,-y'
		'-z,-x,y'
		'-z,x,-y'
		'y,z,x'
		'-y,z,-x'
		'y,-z,-x'
		'-y,-z,x'
		'y,x,-z'
		'-y,-x,-z'
		'y,-x,z'
		'-y,x,z'
		'x,z,-y'
		'-x,z,y'
		'-x,-z,-y'
		'x,-z,y'
		'z,y,-x'
		'z,-y,x'
		'-z,y,x'
		'-z,-y,-x'
		'-x,-y,-z'
		'x,y,-z'
		'x,-y,z'
		'-x,y,z'
		'-z,-x,-y'
		'-z,x,y'
		'z,x,-y'
		'z,-x,y'
		'-y,-z,-x'
		'y,-z,x'
		'-y,z,x'
		'y,z,-x'
		'-y,-x,z'
		'y,x,z'
		'-y,x,-z'
		'y,-x,-z'
		'-x,-z,y'
		'x,-z,-y'
		'x,z,y'
		'-x,z,-y'
		'-z,-y,x'
		'-z,y,-x'
		'z,-y,-x'
		'z,y,x'
		'x+1/2,y+1/2,z+1/2'
		'-x+1/2,-y+1/2,z+1/2'
		'-x+1/2,y+1/2,-z+1/2'
		'x+1/2,-y+1/2,-z+1/2'
		'z+1/2,x+1/2,y+1/2'
		'z+1/2,-x+1/2,-y+1/2'
		'-z+1/2,-x+1/2,y+1/2'
		'-z+1/2,x+1/2,-y+1/2'
		'y+1/2,z+1/2,x+1/2'
		'-y+1/2,z+1/2,-x+1/2'
		'y+1/2,-z+1/2,-x+1/2'
		'-y+1/2,-z+1/2,x+1/2'
		'y+1/2,x+1/2,-z+1/2'
		'-y+1/2,-x+1/2,-z+1/2'
		'y+1/2,-x+1/2,z+1/2'
		'-y+1/2,x+1/2,z+1/2'
		'x+1/2,z+1/2,-y+1/2'
		'-x+1/2,z+1/2,y+1/2'
		'-x+1/2,-z+1/2,-y+1/2'
		'x+1/2,-z+1/2,y+1/2'
		'z+1/2,y+1/2,-x+1/2'
		'z+1/2,-y+1/2,x+1/2'
		'-z+1/2,y+1/2,x+1/2'
		'-z+1/2,-y+1/2,-x+1/2'
		'-x+1/2,-y+1/2,-z+1/2'
		'x+1/2,y+1/2,-z+1/2'
		'x+1/2,-y+1/2,z+1/2'
		'-x+1/2,y+1/2,z+1/2'
		'-z+1/2,-x+1/2,-y+1/2'
		'-z+1/2,x+1/2,y+1/2'
		'z+1/2,x+1/2,-y+1/2'
		'z+1/2,-x+1/2,y+1/2'
		'-y+1/2,-z+1/2,-x+1/2'
		'y+1/2,-z+1/2,x+1/2'
		'-y+1/2,z+1/2,x+1/2'
		'y+1/2,z+1/2,-x+1/2'
		'-y+1/2,-x+1/2,z+1/2'
		'y+1/2,x+1/2,z+1/2'
		'-y+1/2,x+1/2,-z+1/2'
		'y+1/2,-x+1/2,-z+1/2'
		'-x+1/2,-z+1/2,y+1/2'
		'x+1/2,-z+1/2,-y+1/2'
		'x+1/2,z+1/2,y+1/2'
		'-x+1/2,z+1/2,-y+1/2'
		'-z+1/2,-y+1/2,x+1/2'
		'-z+1/2,y+1/2,-x+1/2'
		'z+1/2,-y+1/2,-x+1/2'
		'z+1/2,y+1/2,x+1/2'
Framework is simulated as 'flexible'
Shift: 0.000000 0.000000 0.000000
Number of framework atoms: 240
Number of asymmetric atoms: 3
Number of free framework atoms: 240
Number of fixed framework atoms: 0
Number of framework atoms in the unit cell: 144
Framework Mass:  2864.846399999994 [g/mol]
Framework Density:  1400.834168156120 [kg/m^3]
Framework has net charge: -0.000000
         largest charge : 4.000000
         smallest charge: -2.869020


Current Atom Status
===========================================================================
Number of framework atoms        : 240
Number of cations molecules      : 0
Number of adsorbate molecules    : 0
Pseudo Atoms    0 [    UNIT]:    0 atoms
Pseudo Atoms    1 [       O]:   96 atoms
Pseudo Atoms    2 [      Oa]:    0 atoms
Pseudo Atoms    3 [     shO]:   96 atoms
Pseudo Atoms    4 [    shOa]:    0 atoms
Pseudo Atoms    5 [      Mg]:    0 atoms
Pseudo Atoms    6 [       P]:    0 atoms
Pseudo Atoms    7 [      Si]:   48 atoms
Pseudo Atoms    8 [      Al]:    0 atoms


Current (initial full energy) Energy Status
===========================================================================

Internal energy:
Host stretch energy:                                       426055.10228003
Host UreyBradley energy:                                        0.00000000
Host bend energy:                                           54919.31980628
Host inversion-bend energy:                                     0.00000000
Host torsion energy:                                            0.00000000
Host improper torsion energy:                                   0.00000000
Host out-of-plane energy:                                       0.00000000
Host stretch/stretch energy:                                    0.00000000
Host bend/bend energy:                                          0.00000000
Host stretch/bend energy:                                       0.00000000
Host stretch/torsion energy:                                    0.00000000
Host bend/torsion energy:                                       0.00000000

Adsorbate stretch energy:                                       0.00000000
Adsorbate UreyBradley energy:                                   0.00000000
Adsorbate bend energy:                                          0.00000000
Adsorbate inversion-bend energy:                                0.00000000
Adsorbate torsion energy:                                       0.00000000
Adsorbate improper torsion energy:                              0.00000000
Adsorbate out-of-plane energy:                                  0.00000000
Adsorbate stretch/stretch energy:                               0.00000000
Adsorbate bend/bend energy:                                     0.00000000
Adsorbate stretch/bend energy:                                  0.00000000
Adsorbate stretch/torsion energy:                               0.00000000
Adsorbate bend/torsion energy:                                  0.00000000
Adsorbate intra VDW energy:                                     0.00000000
Adsorbate intra charge-charge Coulomb energy:                   0.00000000
Adsorbate intra charge-bonddipole Coulomb energy:               0.00000000
Adsorbate intra bonddipole-bonddipole Coulomb energy:           0.00000000

Cation stretch energy:                                          0.00000000
Cation UreyBradley energy:                                      0.00000000
Cation bend energy:                                             0.00000000
Cation inversion-bend energy:                                   0.00000000
Cation torsion energy:                                          0.00000000
Cation improper torsion energy:                                 0.00000000
Cation out-of-plane energy:                                     0.00000000
Cation stretch/stretch energy:                                  0.00000000
Cation bend/bend energy:                                        0.00000000
Cation stretch/bend energy:                                     0.00000000
Cation stretch/torsion energy:                                  0.00000000
Cation bend/torsion energy:                                     0.00000000
Cation intra VDW energy:                                        0.00000000
Cation intra charge-charge Coulomb energy:                      0.00000000
Cation intra charge-bonddipole Coulomb energy:                  0.00000000
Cation intra bonddipole-bonddipole Coulomb energy:              0.00000000

Host/Host energy:                                     -69959423.96820804
	Host/Host VDW energy:                                  14992499.90602798
	Host/Host Coulomb energy:                             -84951923.87423603
	Host/Host charge-charge Real energy:                  -50692127.65044698
	Host/Host charge-charge Fourier energy:               -34259796.22378905
	Host/Host charge-bonddipole Real energy:                      0.00000000
	Host/Host charge-bonddipole Fourier energy:                   0.00000000
	Host/Host bondipole-bonddipole Real energy:                   0.00000000
	Host/Host bondipole-bonddipole Fourier energy:                0.00000000

Host/Adsorbate energy:                                        0.00000000
	Host/Adsorbate VDW energy:                                    0.00000000
	Host/Adsorbate Coulomb energy:                                0.00000000
	Host/Adsorbate charge-charge Real energy:                     0.00000000
	Host/Adsorbate charge-charge Fourier energy:                  0.00000000
	Host/Adsorbate charge-bonddipole Real energy:                 0.00000000
	Host/Adsorbate charge-bonddipole Fourier energy:              0.00000000
	Host/Adsorbate bondipole-bonddipole Real energy:              0.00000000
	Host/Adsorbate bondipole-bonddipole Fourier energy:           0.00000000

Host/Cation energy:                                           0.00000000
	Host/Cation VDW energy:                                       0.00000000
	Host/Cation Coulomb energy:                                   0.00000000
	Host/Cation charge-charge Real energy:                        0.00000000
	Host/Cation charge-charge Fourier energy:                     0.00000000
	Host/Cation charge-bonddipole Real energy:                    0.00000000
	Host/Cation charge-bonddipole Fourier energy:                 0.00000000
	Host/Cation bondipole-bonddipole Real energy:                 0.00000000
	Host/Cation bondipole-bonddipole Fourier energy:              0.00000000

Adsorbate/Adsorbate energy:                                        0.00000000
	Adsorbate/Adsorbate VDW energy:                                    0.00000000
	Adsorbate/Adsorbate Coulomb energy:                                0.00000000
	Adsorbate/Adsorbate charge-charge Real energy:                     0.00000000
	Adsorbate/Adsorbate charge-charge Fourier energy:                  0.00000000
	Adsorbate/Adsorbate charge-bonddipole Real energy:                 0.00000000
	Adsorbate/Adsorbate charge-bonddipole Fourier energy:              0.00000000
	Adsorbate/Adsorbate bondipole-bonddipole Real energy:              0.00000000
	Adsorbate/Adsorbate bondipole-bonddipole Fourier energy:           0.00000000

Adsorbate/Cation energy:                                           0.00000000
	Adsorbate/Cation VDW energy:                                       0.00000000
	Adsorbate/Cation Coulomb energy:                                   0.00000000
	Adsorbate/Cation charge-charge Real energy:                        0.00000000
	Adsorbate/Cation charge-charge Fourier energy:                     0.00000000
	Adsorbate/Cation charge-bonddipole Real energy:                    0.00000000
	Adsorbate/Cation charge-bonddipole Fourier energy:                 0.00000000
	Adsorbate/Cation bondipole-bonddipole Real energy:                 0.00000000
	Adsorbate/Cation bondipole-bonddipole Fourier energy:              0.00000000

Cation/Cation energy:                                           0.00000000
	Cation/Cation VDW energy:                                       0.00000000
	Cation/Cation Coulomb energy:                                   0.00000000
	Cation/Cation charge-charge Real energy:                        0.00000000
	Cation/Cation charge-charge Fourier energy:                     0.00000000
	Cation/Cation charge-bonddipole Real energy:                    0.00000000
	Cation/Cation charge-bonddipole Fourier energy:                 0.00000000
	Cation/Cation bondipole-bonddipole Real energy:                 0.00000000
	Cation/Cation bondipole-bonddipole Fourier energy:              0.00000000

Polarization energy:
	Host polarization energy:                                     0.00000000
	Adsorbate polarization energy:                                0.00000000
	Cation polarization energy:                                   0.00000000
	Host back-polarization energy:                                     0.00000000
	Adsorbate back-polarization energy:                                0.00000000
	Cation back-polarization energy:                                   0.00000000

Tail-correction energy:                                       0.00000000

Distance constraints energy:                                  0.00000000
Angle constraints energy:                                     0.00000000
Dihedral constraints energy:                                  0.00000000
Inversion-bend constraints energy:                            0.00000000
Out-of-plane distance constraints energy:                     0.00000000
Exclusion constraints energy:                                 0.00000000

===================================================================
Total energy: -69478449.546121746302
	Total Van der Waals: 14992499.906028
	Total Coulomb: -84951923.874236

	Total Polarization: 0.000000







+++++++++++++++++++++++++++++++++++++++++++++++++++++++++++++++++++++++++
Starting simulation
+++++++++++++++++++++++++++++++++++++++++++++++++++++++++++++++++++++++++

Total number of variables used in the minimization: 726
Number of cell-variables used in the minimization: 6
Total number of variables used for generalized coordinates in the minimization: 720
Total number of variables used for positions in the minimization: 720
Total number of variables used for orientation in the minimization: 0

Minimization initial volume:    3395.9682747910 [A^3]
Minimization initial energy: -69478449.5461228192 [K]
Minimization initial strain:       0.0000000000 [-]
Minimization initial box:      15.0310000000       0.0000000000       0.0000000000[-]
                                0.0000000000      15.0310000000       0.0000000000[-]
                                0.0000000000       0.0000000000      15.0310000000[-]

Beginning Baker minimization:
-----------------------------
Computing generalized Hessian matrix
Computing eigenvalues and vectors
Shifting parameter: -1739391.7309972495 Lowest eigenvalue:  -40041.7309972494
Iteration: 0 Energy: -69478449.5461228192 Volume:    3395.9682747910 RMS gradient: 7161.38  Max gradient: 2.7875e+06 Number of negative eigenvalues: 20 Number of zero eigenvalues: 3
      Box:      15.0310000000       0.0000000000       0.0000000000     Strain derivative: 2787496.7507612486   93379.6622322812  134023.1467453912
                 0.0000000000      15.0310000000       0.0000000000                          93379.6622322811 2627247.6213216912  186783.9443083848
                 0.0000000000       0.0000000000      15.0310000000                         134023.1467453910  186783.9443083855 2643724.1776400227
      Lengths:      15.0310000000      15.0310000000      15.0310000000, Angles:      90.0000000000      90.0000000000      90.0000000000

Computing generalized Hessian matrix
Computing eigenvalues and vectors
Shifting parameter: -1138953.0310277329 Lowest eigenvalue:   -5553.0310277328
Iteration: 1 Energy: -70327034.5018809736 Volume:    3229.0728266055 RMS gradient: 4224.46  Max gradient: 1.49725e+06 Number of negative eigenvalues: 9 Number of zero eigenvalues: 3
      Box:      14.7776250905      -0.0029208638      -0.0091286972     Strain derivative: 1497249.3082622420   55561.4320814624   78219.8664758757
                 0.0000000000      14.7809427493       0.0026635700                          55561.4320814626 1407248.6344039743  106140.0453973596
                 0.0000000000       0.0000000000      14.7832887878                          78219.8664758764  106140.0453973597 1417075.0442245235
      Lengths:      14.7776250905      14.7809430379      14.7832918462, Angles:      89.9896697787      90.0353802022      90.0113222256

Computing generalized Hessian matrix
Computing eigenvalues and vectors
Shifting parameter: -679895.6266084346 Lowest eigenvalue:    -575.3990377130
Iteration: 2 Energy: -70890376.0622770190 Volume:    3149.8877025030 RMS gradient: 2506.48  Max gradient: 785930 Number of negative eigenvalues: 2 Number of zero eigenvalues: 3
      Box:      14.6576212203       0.0036728866      -0.0011107973     Strain derivative:  785929.9174381330   34785.1016615975   47502.6650838405
                 0.0000000000      14.6572303087       0.0258246458                          34785.1016615972  734920.8200049818   62959.7774105454
                 0.0000000000       0.0000000000      14.6615425268                          47502.6650838399   62959.7774105455  741166.3719006527
      Lengths:      14.6576212203      14.6572307689      14.6615653124, Angles:      89.8990811726      90.0043408733      89.9856425197

Computing generalized Hessian matrix
Computing eigenvalues and vectors
Shifting parameter: -330463.1394625874 Lowest eigenvalue:     137.2667376376
Iteration: 3 Energy: -71246949.4860725552 Volume:    3110.4031446883 RMS gradient: 1383.59  Max gradient: 379024 Number of negative eigenvalues: 0 Number of zero eigenvalues: 3
      Box:      14.5989543729       0.0073551540       0.0063370989     Strain derivative:  379024.1726725340   21865.5220720145   29007.1923326544
                 0.0000000000      14.5938527396       0.0446294928                          21865.5220720153  350729.6962811902   37636.9020462744
                 0.0000000000       0.0000000000      14.5990626211                          29007.1923326552   37636.9020462739  354927.3528509428
      Lengths:      14.5989543729      14.5938545930      14.5991322128, Angles:      89.8248342301      89.9751294100      89.9711235097

Computing generalized Hessian matrix
Computing eigenvalues and vectors
Shifting parameter: -138935.0740576448 Lowest eigenvalue:     803.7898679160
Iteration: 4 Energy: -71429470.9802016169 Volume:    3100.2344721468 RMS gradient: 673.637  Max gradient: 166772 Number of negative eigenvalues: 0 Number of zero eigenvalues: 3
      Box:      14.5840182284       0.0038337716       0.0062766674     Strain derivative:  166771.6009587628   12185.2771565485   16119.0155201585
                 0.0000000000      14.5780609674       0.0454142218                          12185.2771565488  152064.8124912847   20405.3286223491
                 0.0000000000       0.0000000000      14.5820163324                          16119.0155201583   20405.3286223490  154614.9497270687
      Lengths:      14.5840182284      14.5780614715      14.5820884021, Angles:      89.8215521771      89.9753377877      89.9849322261

Computing generalized Hessian matrix
Computing eigenvalues and vectors
Shifting parameter:  -75724.9771631472 Lowest eigenvalue:    1261.5454855758
Iteration: 5 Energy: -71500846.4301667958 Volume:    3116.7637235554 RMS gradient: 365.926  Max gradient: 90571.3 Number of negative eigenvalues: 0 Number of zero eigenvalues: 3
      Box:      14.6086795159      -0.0004830393       0.0035891178     Strain derivative:   90571.3021475006    6290.1085398517    8534.3095014871
                 0.0000000000      14.6058807844       0.0336927891                           6290.1085398533   82902.5764688000   10208.8504298307
                 0.0000000000       0.0000000000      14.6071391758                           8534.3095014881   10208.8504298310   84090.3372495346
      Lengths:      14.6086795159      14.6058807924      14.6071784745, Angles:      89.8678424083      89.9859219012      90.0018948611

Computing generalized Hessian matrix
Computing eigenvalues and vectors
Shifting parameter:  -45960.2157684932 Lowest eigenvalue:    1113.7757612277
Iteration: 6 Energy: -71537770.9146755785 Volume:    3142.1310506159 RMS gradient: 223.611  Max gradient: 60134.5 Number of negative eigenvalues: 0 Number of zero eigenvalues: 3
      Box:      14.6468182284      -0.0022463938       0.0023047676     Strain derivative:   60134.5124412658    3342.2773603819    4633.0750671930
                 0.0000000000      14.6472529854       0.0229965238                           3342.2773603819   56070.3508974145    4973.3987523508
                 0.0000000000       0.0000000000      14.6461952641                           4633.0750671931    4973.3987523505   56467.6271175422
      Lengths:      14.6468182284      14.6472531576      14.6462134993, Angles:      89.9100392717      89.9909837818      90.0087872371

Computing generalized Hessian matrix
Computing eigenvalues and vectors
Shifting parameter:  -25634.8120859913 Lowest eigenvalue:     845.6384016799
Iteration: 7 Energy: -71560765.1669031978 Volume:    3169.4876796571 RMS gradient: 142.127  Max gradient: 43353.8 Number of negative eigenvalues: 0 Number of zero eigenvalues: 3
      Box:      14.6879732161      -0.0025920845       0.0017678829     Strain derivative:   43353.8410805805    1714.5324676954    2393.7699295210
                 0.0000000000      14.6911138562       0.0145722686                           1714.5324676955   41324.6034438953    2134.6881797604
                 0.0000000000       0.0000000000      14.6883317014                           2393.7699295210    2134.6881797604   41314.9664303283
      Lengths:      14.6879732161      14.6911140849      14.6883390364, Angles:      89.9431581924      89.9931039016      90.0101092062

Computing generalized Hessian matrix
Computing eigenvalues and vectors
Shifting parameter:  -10742.3165377387 Lowest eigenvalue:     583.7604386804
Iteration: 8 Energy: -71574674.9856843501 Volume:    3196.1703043871 RMS gradient: 88.6202  Max gradient: 31018.5 Number of negative eigenvalues: 0 Number of zero eigenvalues: 3
      Box:      14.7280536286      -0.0020752391       0.0014298467     Strain derivative:   31018.4972908655     774.4490852092    1056.5108773254
                 0.0000000000      14.7332769280       0.0080192694                            774.4490852088   30155.3400869956     644.3092325181
                 0.0000000000       0.0000000000      14.7294049868                           1056.5108773248     644.3092325179   29988.5146724262
      Lengths:      14.7280536286      14.7332770741      14.7294072392, Angles:      89.9688067032      89.9944380530      90.0080703322

Computing generalized Hessian matrix
Computing eigenvalues and vectors
Shifting parameter:   -2244.4950973759 Lowest eigenvalue:     357.2569815126
Iteration: 9 Energy: -71581276.3661177158 Volume:    3218.1759313273 RMS gradient: 47.9692  Max gradient: 18984.4 Number of negative eigenvalues: 0 Number of zero eigenvalues: 3
      Box:      14.7611501078      -0.0009504998       0.0007817457     Strain derivative:   18984.4415971092     238.7686902337     278.4578914851
                 0.0000000000      14.7674143587       0.0029550159                            238.7686902338   18716.2687176192     -11.5308885870
                 0.0000000000       0.0000000000      14.7633571055                            278.4578914851     -11.5308885877   18588.1484753220
      Lengths:      14.7611501078      14.7674143893      14.7633574219, Angles:      89.9885319407      89.9969660878      90.0036878243

Computing generalized Hessian matrix
Computing eigenvalues and vectors
Shifting parameter:     -89.1379711551 Lowest eigenvalue:     273.9426215129
Iteration: 10 Energy: -71582769.3323643804 Volume:    3224.9907373025 RMS gradient: 17.0161  Max gradient: 7180.16 Number of negative eigenvalues: 0 Number of zero eigenvalues: 3
      Box:      14.7723722905       0.0000070420      -0.0001090865     Strain derivative:    7180.1584682051      11.8723557350     -10.0584068119
                 0.0000000000      14.7765906141       0.0001361396                             11.8723557354    6995.3081787631     -98.0866126858
                 0.0000000000       0.0000000000      14.7742004191                            -10.0584068113     -98.0866126863    7089.1282342078
      Lengths:      14.7723722905      14.7765906141      14.7742004201, Angles:      89.9994720378      90.0004230481      89.9999726947

Computing generalized Hessian matrix
Computing eigenvalues and vectors
Shifting parameter:      -0.1314657774 Lowest eigenvalue:     280.8637525703
Iteration: 11 Energy: -71582824.0500571877 Volume:    3222.6399600307 RMS gradient: 0.38269  Max gradient: 238.636 Number of negative eigenvalues: 0 Number of zero eigenvalues: 3
      Box:      14.7706637697       0.0000021715      -0.0000139011     Strain derivative:     238.6361191290      -2.9612870430       5.0409089676
                 0.0000000000      14.7709395162      -0.0000025684                             -2.9612870441     -52.3106571484      -6.7437492209
                 0.0000000000       0.0000000000      14.7707876939                              5.0409089674      -6.7437492206     112.1194393579
      Lengths:      14.7706637697      14.7709395162      14.7707876939, Angles:      90.0000099627      90.0000539224      89.9999915769

Computing generalized Hessian matrix
Computing eigenvalues and vectors
Shifting parameter:      -0.0000549665 Lowest eigenvalue:     281.3346858744
Iteration: 12 Energy: -71582824.1291083544 Volume:    3222.5963433944 RMS gradient: 0.0340108  Max gradient: 22.8358 Number of negative eigenvalues: 0 Number of zero eigenvalues: 3
      Box:      14.7707325108      -0.0000000351       0.0000002445     Strain derivative:       5.9205895668      -0.1320805535       0.5220209926
                 0.0000000000      14.7707280573       0.0000000644                             -0.1320805543     -22.8358079654      -0.0314657895
                 0.0000000000       0.0000000000      14.7707304950                              0.5220209929      -0.0314657893      -6.9251539544
      Lengths:      14.7707325108      14.7707280573      14.7707304950, Angles:      89.9999997503      89.9999990517      90.0000001361

Computing generalized Hessian matrix
Computing eigenvalues and vectors
Shifting parameter:      -0.0000000125 Lowest eigenvalue:     281.3659174253
Iteration: 13 Energy: -71582824.1291427165 Volume:    3222.5969880801 RMS gradient: 0.000126306  Max gradient: 0.0763461 Number of negative eigenvalues: 0 Number of zero eigenvalues: 3
      Box:      14.7707313013       0.0000000006      -0.0000000043     Strain derivative:       0.0763461230      -0.0012222612       0.0015942796
                 0.0000000000      14.7707313798      -0.0000000011                             -0.0012222608      -0.0350801734      -0.0025046287
                 0.0000000000       0.0000000000      14.7707313369                              0.0015942805      -0.0025046287       0.0288733191
      Lengths:      14.7707313013      14.7707313798      14.7707313369, Angles:      90.0000000044      90.0000000167      89.9999999976

Computing generalized Hessian matrix
Computing eigenvalues and vectors
Shifting parameter:      -0.0000000000 Lowest eigenvalue:     281.3660693249
Iteration: 14 Energy: -71582824.1291420460 Volume:    3222.5969766929 RMS gradient: 1.03569e-05  Max gradient: 0.0069554 Number of negative eigenvalues: 0 Number of zero eigenvalues: 3
      Box:      14.7707313226      -0.0000000000       0.0000000001     Strain derivative:       0.0017800894      -0.0000400290       0.0001587726
                 0.0000000000      14.7707313212       0.0000000000                             -0.0000400286      -0.0069553989      -0.0000089782
                 0.0000000000       0.0000000000      14.7707313220                              0.0001587730      -0.0000089775      -0.0021245504
      Lengths:      14.7707313226      14.7707313212      14.7707313220, Angles:      89.9999999999      89.9999999997      90.0000000000

Computing generalized Hessian matrix
Computing eigenvalues and vectors
Shifting parameter:      -0.0000000000 Lowest eigenvalue:     281.3660788083
Iteration: 15 Energy: -71582824.1291424185 Volume:    3222.5969768937 RMS gradient: 3.55526e-08  Max gradient: 2.18895e-05 Number of negative eigenvalues: 0 Number of zero eigenvalues: 3
      Box:      14.7707313222       0.0000000000      -0.0000000000     Strain derivative:       0.0000218895      -0.0000003519       0.0000004401
                 0.0000000000      14.7707313222      -0.0000000000                             -0.0000003518      -0.0000089065      -0.0000007708
                 0.0000000000       0.0000000000      14.7707313222                              0.0000004406      -0.0000007700       0.0000078628
      Lengths:      14.7707313222      14.7707313222      14.7707313222, Angles:      90.0000000000      90.0000000000      90.0000000000

Computing generalized Hessian matrix
Computing eigenvalues and vectors
Shifting parameter:      -0.0000000000 Lowest eigenvalue:     281.3660788540
Iteration: 16 Energy: -71582824.1291417480 Volume:    3222.5969768904 RMS gradient: 3.11656e-09  Max gradient: 2.18476e-06 Number of negative eigenvalues: 0 Number of zero eigenvalues: 3
      Box:      14.7707313222      -0.0000000000       0.0000000000     Strain derivative:       0.0000005304      -0.0000000145       0.0000000490
                 0.0000000000      14.7707313222       0.0000000000                             -0.0000000146      -0.0000021848       0.0000000135
                 0.0000000000       0.0000000000      14.7707313222                              0.0000000487       0.0000000137      -0.0000001254
      Lengths:      14.7707313222      14.7707313222      14.7707313222, Angles:      90.0000000000      90.0000000000      90.0000000000

Computing generalized Hessian matrix
Computing eigenvalues and vectors
Shifting parameter:      -0.0000000000 Lowest eigenvalue:     281.3660788573
Iteration: 17 Energy: -71582824.1291420609 Volume:    3222.5969768904 RMS gradient: 1.72666e-09  Max gradient: 8.29735e-07 Number of negative eigenvalues: 0 Number of zero eigenvalues: 3
      Box:      14.7707313222      -0.0000000000      -0.0000000000     Strain derivative:       0.0000008297       0.0000000001      -0.0000000006
                 0.0000000000      14.7707313222      -0.0000000000                             -0.0000000004       0.0000007377      -0.0000000010
                 0.0000000000       0.0000000000      14.7707313222                             -0.0000000007      -0.0000000008      -0.0000005815
      Lengths:      14.7707313222      14.7707313222      14.7707313222, Angles:      90.0000000000      90.0000000000      90.0000000000

SUCCES: RMS Gradient tolerance 1e-06 reached (1.72666e-09)
        Max Gradient tolerance 1e-06 reached (8.29735e-07)


Variable vector:
================
x: 0 = 3.7772
x: 1 = 1.57841
x: 2 = 5.97785
x: 3 = 3.34102
x: 4 = 0.0208351
x: 5 = 5.73122
x: 6 = 2.48869
x: 7 = 2.49008
x: 8 = 5.56541
x: 9 = -1.53812
x: 10 = 3.77859
x: 11 = 5.97785
x: 12 = 0.0194479
x: 13 = 3.3424
x: 14 = 5.73122
x: 15 = -2.4498
x: 16 = 2.49008
x: 17 = 5.56541
x: 18 = -3.7383
x: 19 = -1.53673
x: 20 = 5.97785
x: 21 = -3.30212
x: 22 = 0.0208351
x: 23 = 5.73122
x: 24 = -2.4498
x: 25 = -2.44841
x: 26 = 5.56541
x: 27 = 1.57702
x: 28 = -3.73691
x: 29 = 5.97785
x: 30 = 0.0194479
x: 31 = -3.30073
x: 32 = 5.73122
x: 33 = 2.48869
x: 34 = -2.44841
x: 35 = 5.56541
x: 36 = 3.7772
x: 37 = -1.53673
x: 38 = -5.93801
x: 39 = 3.34102
x: 40 = 0.0208351
x: 41 = -5.69138
x: 42 = 2.48869
x: 43 = -2.44841
x: 44 = -5.52557
x: 45 = 1.57702
x: 46 = 3.77859
x: 47 = -5.93801
x: 48 = 0.0194479
x: 49 = 3.3424
x: 50 = -5.69138
x: 51 = 2.48869
x: 52 = 2.49008
x: 53 = -5.52557
x: 54 = -3.7383
x: 55 = 1.57841
x: 56 = -5.93801
x: 57 = -3.30212
x: 58 = 0.0208351
x: 59 = -5.69138
x: 60 = -2.4498
x: 61 = 2.49008
x: 62 = -5.52557
x: 63 = -1.53812
x: 64 = -3.73691
x: 65 = -5.93801
x: 66 = 0.0194479
x: 67 = -3.30073
x: 68 = -5.69138
x: 69 = -2.4498
x: 70 = -2.44841
x: 71 = -5.52557
x: 72 = 5.97738
x: 73 = 3.77859
x: 74 = 1.57749
x: 75 = 5.73075
x: 76 = 3.3424
x: 77 = 0.0199199
x: 78 = 5.56494
x: 79 = 2.49008
x: 80 = 2.48917
x: 81 = -3.7383
x: 82 = 5.97877
x: 83 = 1.57749
x: 84 = -3.30212
x: 85 = 5.73214
x: 86 = 0.0199199
x: 87 = -2.4498
x: 88 = 5.56632
x: 89 = 2.48917
x: 90 = -5.93848
x: 91 = -3.73691
x: 92 = 1.57749
x: 93 = -5.69185
x: 94 = -3.30073
x: 95 = 0.0199199
x: 96 = -5.52604
x: 97 = -2.44841
x: 98 = 2.48917
x: 99 = 3.7772
x: 100 = -5.93709
x: 101 = 1.57749
x: 102 = 3.34102
x: 103 = -5.69047
x: 104 = 0.0199199
x: 105 = 2.48869
x: 106 = -5.52465
x: 107 = 2.48917
x: 108 = 5.97738
x: 109 = -3.73691
x: 110 = -1.53765
x: 111 = 5.73075
x: 112 = -3.30073
x: 113 = 0.0199199
x: 114 = 5.56494
x: 115 = -2.44841
x: 116 = -2.44933
x: 117 = 3.7772
x: 118 = 5.97877
x: 119 = -1.53765
x: 120 = 3.34102
x: 121 = 5.73214
x: 122 = 0.0199199
x: 123 = 2.48869
x: 124 = 5.56632
x: 125 = -2.44933
x: 126 = -5.93848
x: 127 = 3.77859
x: 128 = -1.53765
x: 129 = -5.69185
x: 130 = 3.3424
x: 131 = 0.0199199
x: 132 = -5.52604
x: 133 = 2.49008
x: 134 = -2.44933
x: 135 = -3.7383
x: 136 = -5.93709
x: 137 = -1.53765
x: 138 = -3.30212
x: 139 = -5.69047
x: 140 = 0.0199199
x: 141 = -2.4498
x: 142 = -5.52465
x: 143 = -2.44933
x: 144 = 1.57702
x: 145 = 5.97877
x: 146 = 3.77767
x: 147 = 0.0194479
x: 148 = 5.73214
x: 149 = 3.34149
x: 150 = 2.48869
x: 151 = 5.56632
x: 152 = 2.48917
x: 153 = 1.57702
x: 154 = -5.93709
x: 155 = -3.73783
x: 156 = 0.0194479
x: 157 = -5.69047
x: 158 = -3.30165
x: 159 = 2.48869
x: 160 = -5.52465
x: 161 = -2.44933
x: 162 = 5.97738
x: 163 = 1.57841
x: 164 = -3.73783
x: 165 = 5.73075
x: 166 = 0.0208351
x: 167 = -3.30165
x: 168 = 5.56494
x: 169 = 2.49008
x: 170 = -2.44933
x: 171 = -1.53812
x: 172 = 5.97877
x: 173 = -3.73783
x: 174 = 0.0194479
x: 175 = 5.73214
x: 176 = -3.30165
x: 177 = -2.4498
x: 178 = 5.56632
x: 179 = -2.44933
x: 180 = -5.93848
x: 181 = -1.53673
x: 182 = -3.73783
x: 183 = -5.69185
x: 184 = 0.0208351
x: 185 = -3.30165
x: 186 = -5.52604
x: 187 = -2.44841
x: 188 = -2.44933
x: 189 = -1.53812
x: 190 = -5.93709
x: 191 = 3.77767
x: 192 = 0.0194479
x: 193 = -5.69047
x: 194 = 3.34149
x: 195 = -2.4498
x: 196 = -5.52465
x: 197 = 2.48917
x: 198 = 5.97738
x: 199 = -1.53673
x: 200 = 3.77767
x: 201 = 5.73075
x: 202 = 0.0208351
x: 203 = 3.34149
x: 204 = 5.56494
x: 205 = -2.44841
x: 206 = 2.48917
x: 207 = -5.93848
x: 208 = 1.57841
x: 209 = 3.77767
x: 210 = -5.69185
x: 211 = 0.0208351
x: 212 = 3.34149
x: 213 = -5.52604
x: 214 = 2.49008
x: 215 = 2.48917
x: 216 = -3.7383
x: 217 = -1.53673
x: 218 = -5.93801
x: 219 = 1.57702
x: 220 = -3.73691
x: 221 = -5.93801
x: 222 = 3.7772
x: 223 = 1.57841
x: 224 = -5.93801
x: 225 = -1.53812
x: 226 = 3.77859
x: 227 = -5.93801
x: 228 = -3.7383
x: 229 = 1.57841
x: 230 = 5.97785
x: 231 = -1.53812
x: 232 = -3.73691
x: 233 = 5.97785
x: 234 = 3.7772
x: 235 = -1.53673
x: 236 = 5.97785
x: 237 = 1.57702
x: 238 = 3.77859
x: 239 = 5.97785
x: 240 = -5.93848
x: 241 = -3.73691
x: 242 = -1.53765
x: 243 = 3.7772
x: 244 = -5.93709
x: 245 = -1.53765
x: 246 = 5.97738
x: 247 = 3.77859
x: 248 = -1.53765
x: 249 = -3.7383
x: 250 = 5.97877
x: 251 = -1.53765
x: 252 = -5.93848
x: 253 = 3.77859
x: 254 = 1.57749
x: 255 = -3.7383
x: 256 = -5.93709
x: 257 = 1.57749
x: 258 = 5.97738
x: 259 = -3.73691
x: 260 = 1.57749
x: 261 = 3.7772
x: 262 = 5.97877
x: 263 = 1.57749
x: 264 = -1.53812
x: 265 = -5.93709
x: 266 = -3.73783
x: 267 = -1.53812
x: 268 = 5.97877
x: 269 = 3.77767
x: 270 = -5.93848
x: 271 = -1.53673
x: 272 = 3.77767
x: 273 = 1.57702
x: 274 = -5.93709
x: 275 = 3.77767
x: 276 = 5.97738
x: 277 = 1.57841
x: 278 = 3.77767
x: 279 = 1.57702
x: 280 = 5.97877
x: 281 = -3.73783
x: 282 = -5.93848
x: 283 = 1.57841
x: 284 = -3.73783
x: 285 = 5.97738
x: 286 = -1.53673
x: 287 = -3.73783
x: 288 = 10.8565
x: 289 = 7.53634
x: 290 = 13.2467
x: 291 = 10.0042
x: 292 = 10.0056
x: 293 = 13.0809
x: 294 = 7.53495
x: 295 = 10.8579
x: 296 = 13.2467
x: 297 = 5.0657
x: 298 = 10.0056
x: 299 = 13.0809
x: 300 = 4.21338
x: 301 = 7.53634
x: 302 = 13.2467
x: 303 = 5.0657
x: 304 = 5.06709
x: 305 = 13.0809
x: 306 = 7.53495
x: 307 = 4.21477
x: 308 = 13.2467
x: 309 = 10.0042
x: 310 = 5.06709
x: 311 = 13.0809
x: 312 = 10.8565
x: 313 = 7.53634
x: 314 = 1.82412
x: 315 = 10.0042
x: 316 = 5.06709
x: 317 = 1.98993
x: 318 = 7.53495
x: 319 = 10.8579
x: 320 = 1.82412
x: 321 = 10.0042
x: 322 = 10.0056
x: 323 = 1.98993
x: 324 = 4.21338
x: 325 = 7.53634
x: 326 = 1.82412
x: 327 = 5.0657
x: 328 = 10.0056
x: 329 = 1.98993
x: 330 = 7.53495
x: 331 = 4.21477
x: 332 = 1.82412
x: 333 = 5.0657
x: 334 = 5.06709
x: 335 = 1.98993
x: 336 = 13.2463
x: 337 = 10.8579
x: 338 = 7.53542
x: 339 = 13.0804
x: 340 = 10.0056
x: 341 = 10.0047
x: 342 = 4.21338
x: 343 = 13.2476
x: 344 = 7.53542
x: 345 = 5.0657
x: 346 = 13.0818
x: 347 = 10.0047
x: 348 = 1.82365
x: 349 = 4.21477
x: 350 = 7.53542
x: 351 = 1.98946
x: 352 = 5.06709
x: 353 = 10.0047
x: 354 = 10.8565
x: 355 = 1.82503
x: 356 = 7.53542
x: 357 = 10.0042
x: 358 = 1.99085
x: 359 = 10.0047
x: 360 = 13.2463
x: 361 = 4.21477
x: 362 = 7.53542
x: 363 = 13.0804
x: 364 = 5.06709
x: 365 = 5.06617
x: 366 = 10.8565
x: 367 = 13.2476
x: 368 = 7.53542
x: 369 = 10.0042
x: 370 = 13.0818
x: 371 = 5.06617
x: 372 = 1.82365
x: 373 = 10.8579
x: 374 = 7.53542
x: 375 = 1.98946
x: 376 = 10.0056
x: 377 = 5.06617
x: 378 = 4.21338
x: 379 = 1.82503
x: 380 = 7.53542
x: 381 = 5.0657
x: 382 = 1.99085
x: 383 = 5.06617
x: 384 = 7.53495
x: 385 = 13.2476
x: 386 = 10.857
x: 387 = 10.0042
x: 388 = 13.0818
x: 389 = 10.0047
x: 390 = 7.53495
x: 391 = 1.82503
x: 392 = 4.21385
x: 393 = 10.0042
x: 394 = 1.99085
x: 395 = 5.06617
x: 396 = 13.2463
x: 397 = 7.53634
x: 398 = 4.21385
x: 399 = 13.0804
x: 400 = 10.0056
x: 401 = 5.06617
x: 402 = 7.53495
x: 403 = 13.2476
x: 404 = 4.21385
x: 405 = 5.0657
x: 406 = 13.0818
x: 407 = 5.06617
x: 408 = 1.82365
x: 409 = 7.53634
x: 410 = 4.21385
x: 411 = 1.98946
x: 412 = 5.06709
x: 413 = 5.06617
x: 414 = 7.53495
x: 415 = 1.82503
x: 416 = 10.857
x: 417 = 5.0657
x: 418 = 1.99085
x: 419 = 10.0047
x: 420 = 13.2463
x: 421 = 7.53634
x: 422 = 10.857
x: 423 = 13.0804
x: 424 = 5.06709
x: 425 = 10.0047
x: 426 = 1.82365
x: 427 = 7.53634
x: 428 = 10.857
x: 429 = 1.98946
x: 430 = 10.0056
x: 431 = 10.0047
x: 432 = 3.43776
x: 433 = 0.0208351
x: 434 = 5.78551
x: 435 = 2.53116
x: 436 = 2.53255
x: 437 = 5.65825
x: 438 = 0.0194479
x: 439 = 3.43915
x: 440 = 5.78551
x: 441 = -2.49226
x: 442 = 2.53255
x: 443 = 5.65825
x: 444 = -3.39886
x: 445 = 0.0208351
x: 446 = 5.78551
x: 447 = -2.49226
x: 448 = -2.49088
x: 449 = 5.65825
x: 450 = 0.0194479
x: 451 = -3.39748
x: 452 = 5.78551
x: 453 = 2.53116
x: 454 = -2.49088
x: 455 = 5.65825
x: 456 = 3.43776
x: 457 = 0.0208351
x: 458 = -5.74567
x: 459 = 2.53116
x: 460 = -2.49088
x: 461 = -5.61841
x: 462 = 0.0194479
x: 463 = 3.43915
x: 464 = -5.74567
x: 465 = 2.53116
x: 466 = 2.53255
x: 467 = -5.61841
x: 468 = -3.39886
x: 469 = 0.0208351
x: 470 = -5.74567
x: 471 = -2.49226
x: 472 = 2.53255
x: 473 = -5.61841
x: 474 = 0.0194479
x: 475 = -3.39748
x: 476 = -5.74567
x: 477 = -2.49226
x: 478 = -2.49088
x: 479 = -5.61841
x: 480 = 5.78504
x: 481 = 3.43915
x: 482 = 0.0199199
x: 483 = 5.65778
x: 484 = 2.53255
x: 485 = 2.53163
x: 486 = -3.39886
x: 487 = 5.78643
x: 488 = 0.0199199
x: 489 = -2.49226
x: 490 = 5.65916
x: 491 = 2.53163
x: 492 = -5.74614
x: 493 = -3.39748
x: 494 = 0.0199199
x: 495 = -5.61888
x: 496 = -2.49088
x: 497 = 2.53163
x: 498 = 3.43776
x: 499 = -5.74476
x: 500 = 0.0199199
x: 501 = 2.53116
x: 502 = -5.61749
x: 503 = 2.53163
x: 504 = 5.78504
x: 505 = -3.39748
x: 506 = 0.0199199
x: 507 = 5.65778
x: 508 = -2.49088
x: 509 = -2.49179
x: 510 = 3.43776
x: 511 = 5.78643
x: 512 = 0.0199199
x: 513 = 2.53116
x: 514 = 5.65916
x: 515 = -2.49179
x: 516 = -5.74614
x: 517 = 3.43915
x: 518 = 0.0199199
x: 519 = -5.61888
x: 520 = 2.53255
x: 521 = -2.49179
x: 522 = -3.39886
x: 523 = -5.74476
x: 524 = 0.0199199
x: 525 = -2.49226
x: 526 = -5.61749
x: 527 = -2.49179
x: 528 = 0.0194479
x: 529 = 5.78643
x: 530 = 3.43823
x: 531 = 2.53116
x: 532 = 5.65916
x: 533 = 2.53163
x: 534 = 0.0194479
x: 535 = -5.74476
x: 536 = -3.39839
x: 537 = 2.53116
x: 538 = -5.61749
x: 539 = -2.49179
x: 540 = 5.78504
x: 541 = 0.0208351
x: 542 = -3.39839
x: 543 = 5.65778
x: 544 = 2.53255
x: 545 = -2.49179
x: 546 = 0.0194479
x: 547 = 5.78643
x: 548 = -3.39839
x: 549 = -2.49226
x: 550 = 5.65916
x: 551 = -2.49179
x: 552 = -5.74614
x: 553 = 0.0208351
x: 554 = -3.39839
x: 555 = -5.61888
x: 556 = -2.49088
x: 557 = -2.49179
x: 558 = 0.0194479
x: 559 = -5.74476
x: 560 = 3.43823
x: 561 = -2.49226
x: 562 = -5.61749
x: 563 = 2.53163
x: 564 = 5.78504
x: 565 = 0.0208351
x: 566 = 3.43823
x: 567 = 5.65778
x: 568 = -2.49088
x: 569 = 2.53163
x: 570 = -5.74614
x: 571 = 0.0208351
x: 572 = 3.43823
x: 573 = -5.61888
x: 574 = 2.53255
x: 575 = 2.53163
x: 576 = 10.9533
x: 577 = 7.53634
x: 578 = 13.301
x: 579 = 10.0467
x: 580 = 10.048
x: 581 = 13.1737
x: 582 = 7.53495
x: 583 = 10.9546
x: 584 = 13.301
x: 585 = 5.02324
x: 586 = 10.048
x: 587 = 13.1737
x: 588 = 4.11664
x: 589 = 7.53634
x: 590 = 13.301
x: 591 = 5.02324
x: 592 = 5.02462
x: 593 = 13.1737
x: 594 = 7.53495
x: 595 = 4.11802
x: 596 = 13.301
x: 597 = 10.0467
x: 598 = 5.02462
x: 599 = 13.1737
x: 600 = 10.9533
x: 601 = 7.53634
x: 602 = 1.76983
x: 603 = 10.0467
x: 604 = 5.02462
x: 605 = 1.89709
x: 606 = 7.53495
x: 607 = 10.9546
x: 608 = 1.76983
x: 609 = 10.0467
x: 610 = 10.048
x: 611 = 1.89709
x: 612 = 4.11664
x: 613 = 7.53634
x: 614 = 1.76983
x: 615 = 5.02324
x: 616 = 10.048
x: 617 = 1.89709
x: 618 = 7.53495
x: 619 = 4.11802
x: 620 = 1.76983
x: 621 = 5.02324
x: 622 = 5.02462
x: 623 = 1.89709
x: 624 = 13.3005
x: 625 = 10.9546
x: 626 = 7.53542
x: 627 = 13.1733
x: 628 = 10.048
x: 629 = 10.0471
x: 630 = 4.11664
x: 631 = 13.3019
x: 632 = 7.53542
x: 633 = 5.02324
x: 634 = 13.1747
x: 635 = 10.0471
x: 636 = 1.76936
x: 637 = 4.11802
x: 638 = 7.53542
x: 639 = 1.89662
x: 640 = 5.02462
x: 641 = 10.0471
x: 642 = 10.9533
x: 643 = 1.77074
x: 644 = 7.53542
x: 645 = 10.0467
x: 646 = 1.89801
x: 647 = 10.0471
x: 648 = 13.3005
x: 649 = 4.11802
x: 650 = 7.53542
x: 651 = 13.1733
x: 652 = 5.02462
x: 653 = 5.02371
x: 654 = 10.9533
x: 655 = 13.3019
x: 656 = 7.53542
x: 657 = 10.0467
x: 658 = 13.1747
x: 659 = 5.02371
x: 660 = 1.76936
x: 661 = 10.9546
x: 662 = 7.53542
x: 663 = 1.89662
x: 664 = 10.048
x: 665 = 5.02371
x: 666 = 4.11664
x: 667 = 1.77074
x: 668 = 7.53542
x: 669 = 5.02324
x: 670 = 1.89801
x: 671 = 5.02371
x: 672 = 7.53495
x: 673 = 13.3019
x: 674 = 10.9537
x: 675 = 10.0467
x: 676 = 13.1747
x: 677 = 10.0471
x: 678 = 7.53495
x: 679 = 1.77074
x: 680 = 4.11711
x: 681 = 10.0467
x: 682 = 1.89801
x: 683 = 5.02371
x: 684 = 13.3005
x: 685 = 7.53634
x: 686 = 4.11711
x: 687 = 13.1733
x: 688 = 10.048
x: 689 = 5.02371
x: 690 = 7.53495
x: 691 = 13.3019
x: 692 = 4.11711
x: 693 = 5.02324
x: 694 = 13.1747
x: 695 = 5.02371
x: 696 = 1.76936
x: 697 = 7.53634
x: 698 = 4.11711
x: 699 = 1.89662
x: 700 = 5.02462
x: 701 = 5.02371
x: 702 = 7.53495
x: 703 = 1.77074
x: 704 = 10.9537
x: 705 = 5.02324
x: 706 = 1.89801
x: 707 = 10.0471
x: 708 = 13.3005
x: 709 = 7.53634
x: 710 = 10.9537
x: 711 = 13.1733
x: 712 = 5.02462
x: 713 = 10.0471
x: 714 = 1.76936
x: 715 = 7.53634
x: 716 = 10.9537
x: 717 = 1.89662
x: 718 = 10.048
x: 719 = 10.0471
x: 720 = -0.0173155
x: 721 = -1.73881e-16
x: 722 = -2.05441e-15
x: 723 = -0.0173155
x: 724 = -9.75143e-16
x: 725 = -0.0173155




Gradient vector:
================
Gradient: 0 = 4.50032e-10
Gradient: 1 = -8.26983e-10
Gradient: 2 = 5.58004e-10
Gradient: 3 = -3.67436e-10
Gradient: 4 = -2.47352e-10
Gradient: 5 = -5.94582e-10
Gradient: 6 = 1.39721e-10
Gradient: 7 = -5.96572e-10
Gradient: 8 = -1.33582e-10
Gradient: 9 = -4.45436e-09
Gradient: 10 = -1.65875e-10
Gradient: 11 = -4.96079e-11
Gradient: 12 = 3.04298e-10
Gradient: 13 = -7.87168e-10
Gradient: 14 = -1.13187e-09
Gradient: 15 = 1.17666e-11
Gradient: 16 = -6.40171e-10
Gradient: 17 = -2.37492e-10
Gradient: 18 = -1.59545e-09
Gradient: 19 = 2.31232e-09
Gradient: 20 = 8.80802e-10
Gradient: 21 = 1.04365e-10
Gradient: 22 = -1.85655e-11
Gradient: 23 = 4.94367e-10
Gradient: 24 = 6.1857e-10
Gradient: 25 = -9.52753e-10
Gradient: 26 = -3.06841e-10
Gradient: 27 = 1.08041e-09
Gradient: 28 = 4.80413e-10
Gradient: 29 = -5.39456e-10
Gradient: 30 = 1.41652e-10
Gradient: 31 = 1.04478e-09
Gradient: 32 = -9.72022e-10
Gradient: 33 = -5.24778e-10
Gradient: 34 = -7.05995e-11
Gradient: 35 = 3.6971e-10
Gradient: 36 = 5.02416e-10
Gradient: 37 = 3.50091e-09
Gradient: 38 = 4.14079e-10
Gradient: 39 = -8.31051e-11
Gradient: 40 = -4.77488e-10
Gradient: 41 = -8.02402e-10
Gradient: 42 = -6.6342e-10
Gradient: 43 = 1.18121e-10
Gradient: 44 = 6.11749e-10
Gradient: 45 = 1.29176e-09
Gradient: 46 = -8.60419e-10
Gradient: 47 = 4.45598e-10
Gradient: 48 = 2.81107e-10
Gradient: 49 = -1.68143e-09
Gradient: 50 = 2.24532e-11
Gradient: 51 = -7.87452e-10
Gradient: 52 = 8.136e-10
Gradient: 53 = 1.17666e-10
Gradient: 54 = -1.81012e-09
Gradient: 55 = -1.76092e-10
Gradient: 56 = -1.15685e-09
Gradient: 57 = -3.71301e-10
Gradient: 58 = -6.76331e-10
Gradient: 59 = -6.58702e-10
Gradient: 60 = 9.21887e-10
Gradient: 61 = 2.64777e-10
Gradient: 62 = 1.67461e-10
Gradient: 63 = -7.58724e-10
Gradient: 64 = 1.1307e-09
Gradient: 65 = 8.26322e-10
Gradient: 66 = -5.25281e-11
Gradient: 67 = -2.12481e-10
Gradient: 68 = 3.33443e-10
Gradient: 69 = 2.28567e-10
Gradient: 70 = -1.97929e-10
Gradient: 71 = 3.36627e-10
Gradient: 72 = 3.04075e-10
Gradient: 73 = -1.17899e-09
Gradient: 74 = -6.13566e-10
Gradient: 75 = 3.09512e-10
Gradient: 76 = 2.80352e-10
Gradient: 77 = 1.36339e-10
Gradient: 78 = -8.24116e-10
Gradient: 79 = 2.05148e-10
Gradient: 80 = 3.93186e-10
Gradient: 81 = 6.62704e-10
Gradient: 82 = -5.01739e-10
Gradient: 83 = -9.67906e-10
Gradient: 84 = 6.45741e-11
Gradient: 85 = -3.92447e-10
Gradient: 86 = 1.28252e-10
Gradient: 87 = -2.68528e-10
Gradient: 88 = 2.19188e-10
Gradient: 89 = -4.9738e-11
Gradient: 90 = 7.93662e-10
Gradient: 91 = 2.89973e-09
Gradient: 92 = -1.27279e-09
Gradient: 93 = -6.11124e-10
Gradient: 94 = 3.44926e-10
Gradient: 95 = 5.09536e-11
Gradient: 96 = -2.68983e-10
Gradient: 97 = 4.51678e-10
Gradient: 98 = 6.68933e-10
Gradient: 99 = -8.26571e-10
Gradient: 100 = 2.42258e-09
Gradient: 101 = -4.63017e-10
Gradient: 102 = 5.59112e-10
Gradient: 103 = -6.76664e-10
Gradient: 104 = -1.64767e-10
Gradient: 105 = -2.00941e-10
Gradient: 106 = 1.11379e-09
Gradient: 107 = 3.99211e-10
Gradient: 108 = 5.21732e-10
Gradient: 109 = 2.25741e-09
Gradient: 110 = -1.00239e-10
Gradient: 111 = 1.42643e-09
Gradient: 112 = 3.04567e-10
Gradient: 113 = -1.82388e-10
Gradient: 114 = 1.57763e-09
Gradient: 115 = -5.40581e-11
Gradient: 116 = -2.15493e-10
Gradient: 117 = -1.4488e-09
Gradient: 118 = -1.24502e-09
Gradient: 119 = -1.00716e-09
Gradient: 120 = -1.7269e-10
Gradient: 121 = -5.24153e-10
Gradient: 122 = -2.67756e-10
Gradient: 123 = -1.04126e-09
Gradient: 124 = -1.17564e-09
Gradient: 125 = -7.53971e-10
Gradient: 126 = -1.8376e-09
Gradient: 127 = 1.16334e-10
Gradient: 128 = 1.43873e-09
Gradient: 129 = -3.94721e-10
Gradient: 130 = -3.30829e-11
Gradient: 131 = -4.5306e-10
Gradient: 132 = -4.30987e-10
Gradient: 133 = -9.78048e-10
Gradient: 134 = -8.60723e-10
Gradient: 135 = -8.65285e-10
Gradient: 136 = 3.19956e-09
Gradient: 137 = -2.93714e-10
Gradient: 138 = 9.85665e-11
Gradient: 139 = -9.22398e-10
Gradient: 140 = -4.25274e-10
Gradient: 141 = 7.95808e-13
Gradient: 142 = -1.04876e-09
Gradient: 143 = -8.40998e-10
Gradient: 144 = 1.22478e-09
Gradient: 145 = -1.32673e-09
Gradient: 146 = -2.07222e-10
Gradient: 147 = 4.85407e-10
Gradient: 148 = -5.4564e-10
Gradient: 149 = -7.79664e-10
Gradient: 150 = -4.04555e-10
Gradient: 151 = 4.57021e-10
Gradient: 152 = 2.14925e-10
Gradient: 153 = 1.14803e-09
Gradient: 154 = 3.5145e-09
Gradient: 155 = 6.23104e-10
Gradient: 156 = -1.16263e-10
Gradient: 157 = -3.2054e-10
Gradient: 158 = 5.88898e-10
Gradient: 159 = -1.15722e-09
Gradient: 160 = 3.02407e-11
Gradient: 161 = -8.71921e-10
Gradient: 162 = -1.84381e-10
Gradient: 163 = -4.84232e-10
Gradient: 164 = -9.04782e-10
Gradient: 165 = 1.63766e-10
Gradient: 166 = -8.46897e-10
Gradient: 167 = -4.25189e-10
Gradient: 168 = -8.29914e-12
Gradient: 169 = 1.44155e-10
Gradient: 170 = -8.29857e-10
Gradient: 171 = -1.53966e-09
Gradient: 172 = -1.82969e-09
Gradient: 173 = -1.22923e-09
Gradient: 174 = -1.99565e-10
Gradient: 175 = -1.19542e-10
Gradient: 176 = 7.56131e-10
Gradient: 177 = 2.62446e-10
Gradient: 178 = -4.92946e-10
Gradient: 179 = -7.64885e-10
Gradient: 180 = 1.64489e-09
Gradient: 181 = -5.15614e-10
Gradient: 182 = -4.63901e-10
Gradient: 183 = 3.08944e-10
Gradient: 184 = -4.97971e-10
Gradient: 185 = -1.03228e-10
Gradient: 186 = -1.46997e-10
Gradient: 187 = 3.24007e-11
Gradient: 188 = -1.35572e-10
Gradient: 189 = 6.84435e-11
Gradient: 190 = 2.42509e-09
Gradient: 191 = -1.43462e-09
Gradient: 192 = 8.8738e-11
Gradient: 193 = -1.38141e-09
Gradient: 194 = -5.85828e-10
Gradient: 195 = 1.91449e-10
Gradient: 196 = 1.55751e-11
Gradient: 197 = -8.25366e-11
Gradient: 198 = -9.71672e-10
Gradient: 199 = 1.09344e-09
Gradient: 200 = -7.5289e-10
Gradient: 201 = 2.59149e-10
Gradient: 202 = 5.56092e-12
Gradient: 203 = 3.29692e-11
Gradient: 204 = 5.03519e-10
Gradient: 205 = 6.61203e-10
Gradient: 206 = -4.17572e-10
Gradient: 207 = -1.16695e-09
Gradient: 208 = -9.76181e-10
Gradient: 209 = 1.72302e-11
Gradient: 210 = -7.96604e-10
Gradient: 211 = -5.52173e-10
Gradient: 212 = 2.766e-10
Gradient: 213 = -1.84093e-09
Gradient: 214 = 3.89207e-10
Gradient: 215 = -5.97481e-10
Gradient: 216 = -2.62563e-09
Gradient: 217 = 9.20652e-10
Gradient: 218 = -1.45119e-09
Gradient: 219 = 6.85611e-10
Gradient: 220 = 8.06561e-10
Gradient: 221 = 1.24134e-10
Gradient: 222 = 3.58833e-10
Gradient: 223 = -9.72405e-10
Gradient: 224 = -1.0306e-09
Gradient: 225 = -1.41554e-09
Gradient: 226 = 6.63619e-10
Gradient: 227 = -1.15538e-09
Gradient: 228 = -1.46249e-09
Gradient: 229 = 3.88321e-10
Gradient: 230 = 1.40017e-09
Gradient: 231 = -1.15515e-09
Gradient: 232 = 3.91051e-10
Gradient: 233 = -5.38297e-10
Gradient: 234 = 8.62189e-10
Gradient: 235 = 8.30717e-10
Gradient: 236 = 8.02545e-10
Gradient: 237 = 1.42215e-09
Gradient: 238 = -1.2378e-09
Gradient: 239 = 3.2109e-10
Gradient: 240 = 2.12399e-10
Gradient: 241 = 1.37751e-09
Gradient: 242 = -1.4565e-10
Gradient: 243 = -1.74058e-09
Gradient: 244 = 3.36505e-09
Gradient: 245 = 5.59563e-10
Gradient: 246 = -3.21525e-10
Gradient: 247 = -1.19568e-09
Gradient: 248 = -4.93933e-10
Gradient: 249 = -1.90799e-09
Gradient: 250 = -1.42626e-09
Gradient: 251 = 5.50857e-10
Gradient: 252 = -1.57754e-09
Gradient: 253 = 6.38171e-10
Gradient: 254 = -6.418e-10
Gradient: 255 = -7.83215e-10
Gradient: 256 = 3.03225e-09
Gradient: 257 = -1.39125e-09
Gradient: 258 = 9.0255e-10
Gradient: 259 = 4.96698e-09
Gradient: 260 = -2.1377e-09
Gradient: 261 = -8.65604e-10
Gradient: 262 = -4.19661e-10
Gradient: 263 = -2.0009e-10
Gradient: 264 = -1.32458e-09
Gradient: 265 = 2.58882e-09
Gradient: 266 = 1.77537e-09
Gradient: 267 = -1.67105e-09
Gradient: 268 = -2.76782e-11
Gradient: 269 = -1.16036e-13
Gradient: 270 = -1.95458e-09
Gradient: 271 = 6.3524e-10
Gradient: 272 = 1.92129e-10
Gradient: 273 = 1.00314e-09
Gradient: 274 = 2.02909e-09
Gradient: 275 = 1.15322e-09
Gradient: 276 = -1.14003e-09
Gradient: 277 = -9.18069e-10
Gradient: 278 = 5.82355e-10
Gradient: 279 = 6.86254e-10
Gradient: 280 = -1.7962e-09
Gradient: 281 = 2.04028e-10
Gradient: 282 = -2.07039e-11
Gradient: 283 = -4.03963e-10
Gradient: 284 = -1.02313e-09
Gradient: 285 = 5.34324e-10
Gradient: 286 = 1.41697e-09
Gradient: 287 = 6.14035e-10
Gradient: 288 = -1.43768e-09
Gradient: 289 = -1.09635e-09
Gradient: 290 = -6.82633e-10
Gradient: 291 = -2.57484e-09
Gradient: 292 = -4.09045e-10
Gradient: 293 = -1.69473e-09
Gradient: 294 = -7.70132e-10
Gradient: 295 = -5.77643e-10
Gradient: 296 = -8.54072e-10
Gradient: 297 = 7.01107e-10
Gradient: 298 = 6.11465e-10
Gradient: 299 = -1.97076e-09
Gradient: 300 = 1.14096e-09
Gradient: 301 = -1.1707e-10
Gradient: 302 = -1.1018e-09
Gradient: 303 = -4.203e-10
Gradient: 304 = -1.66557e-09
Gradient: 305 = 1.69507e-10
Gradient: 306 = 2.05915e-10
Gradient: 307 = 6.70298e-10
Gradient: 308 = -3.77838e-10
Gradient: 309 = -2.31586e-09
Gradient: 310 = 3.35262e-10
Gradient: 311 = 3.36513e-10
Gradient: 312 = -1.16665e-09
Gradient: 313 = -1.71025e-10
Gradient: 314 = -1.14937e-10
Gradient: 315 = -6.37328e-10
Gradient: 316 = 9.50536e-10
Gradient: 317 = -2.66596e-10
Gradient: 318 = 2.62151e-10
Gradient: 319 = -7.53175e-10
Gradient: 320 = 7.15659e-11
Gradient: 321 = 9.38485e-11
Gradient: 322 = 6.1624e-10
Gradient: 323 = 1.10163e-10
Gradient: 324 = 4.98744e-10
Gradient: 325 = -5.9113e-10
Gradient: 326 = 1.60583e-10
Gradient: 327 = -1.47435e-09
Gradient: 328 = 4.65661e-10
Gradient: 329 = -2.05659e-10
Gradient: 330 = 7.03724e-10
Gradient: 331 = 5.22846e-10
Gradient: 332 = 4.394e-11
Gradient: 333 = -4.11205e-10
Gradient: 334 = -9.12962e-10
Gradient: 335 = -2.60343e-11
Gradient: 336 = -1.78443e-09
Gradient: 337 = 1.45519e-10
Gradient: 338 = -6.57215e-10
Gradient: 339 = -2.20211e-10
Gradient: 340 = 6.47236e-09
Gradient: 341 = -1.71531e-09
Gradient: 342 = 7.59201e-10
Gradient: 343 = 9.5207e-10
Gradient: 344 = -3.56952e-10
Gradient: 345 = 7.92227e-10
Gradient: 346 = 2.2028e-09
Gradient: 347 = -5.75824e-10
Gradient: 348 = 5.13069e-10
Gradient: 349 = -5.03633e-11
Gradient: 350 = 3.35338e-10
Gradient: 351 = 1.74168e-10
Gradient: 352 = -8.20023e-10
Gradient: 353 = -2.56705e-10
Gradient: 354 = -3.38787e-11
Gradient: 355 = -5.63602e-10
Gradient: 356 = 6.19197e-10
Gradient: 357 = -3.28214e-10
Gradient: 358 = -3.11275e-10
Gradient: 359 = -1.68939e-10
Gradient: 360 = -2.96194e-09
Gradient: 361 = -8.62769e-10
Gradient: 362 = 4.82736e-10
Gradient: 363 = -2.06114e-10
Gradient: 364 = -7.19979e-10
Gradient: 365 = 5.50187e-10
Gradient: 366 = -1.1853e-09
Gradient: 367 = 3.00776e-09
Gradient: 368 = 8.7221e-10
Gradient: 369 = 2.84956e-10
Gradient: 370 = 3.67891e-10
Gradient: 371 = -1.01352e-09
Gradient: 372 = -2.43006e-10
Gradient: 373 = 8.87098e-10
Gradient: 374 = 1.52464e-09
Gradient: 375 = -3.94834e-10
Gradient: 376 = 1.02591e-09
Gradient: 377 = -5.46095e-10
Gradient: 378 = -5.08635e-10
Gradient: 379 = -5.03746e-10
Gradient: 380 = -6.84071e-10
Gradient: 381 = -5.70196e-10
Gradient: 382 = -2.28852e-10
Gradient: 383 = -6.46594e-10
Gradient: 384 = -1.30877e-09
Gradient: 385 = -1.50368e-09
Gradient: 386 = -9.35756e-10
Gradient: 387 = -9.22228e-10
Gradient: 388 = 2.20064e-09
Gradient: 389 = 6.06178e-10
Gradient: 390 = 3.83405e-10
Gradient: 391 = -4.67537e-10
Gradient: 392 = 7.70569e-10
Gradient: 393 = -3.9114e-10
Gradient: 394 = -4.80895e-11
Gradient: 395 = -7.85803e-10
Gradient: 396 = 6.43126e-10
Gradient: 397 = -4.79283e-10
Gradient: 398 = 8.37986e-10
Gradient: 399 = 1.49464e-09
Gradient: 400 = -1.07491e-09
Gradient: 401 = -4.23142e-10
Gradient: 402 = 8.42325e-10
Gradient: 403 = -3.52259e-10
Gradient: 404 = 8.896e-10
Gradient: 405 = 6.56939e-10
Gradient: 406 = -4.99995e-10
Gradient: 407 = -4.64581e-10
Gradient: 408 = -2.41585e-11
Gradient: 409 = -5.67734e-10
Gradient: 410 = -1.81899e-12
Gradient: 411 = 8.13998e-11
Gradient: 412 = 1.62743e-09
Gradient: 413 = -8.51571e-10
Gradient: 414 = 7.07787e-10
Gradient: 415 = -5.07669e-10
Gradient: 416 = -5.62295e-10
Gradient: 417 = 2.33058e-11
Gradient: 418 = -8.33325e-10
Gradient: 419 = -1.33076e-09
Gradient: 420 = -1.67802e-10
Gradient: 421 = 3.92862e-10
Gradient: 422 = -1.47577e-09
Gradient: 423 = 1.82524e-09
Gradient: 424 = 1.67773e-09
Gradient: 425 = 7.95808e-11
Gradient: 426 = 3.55328e-10
Gradient: 427 = -2.66626e-10
Gradient: 428 = 6.91557e-10
Gradient: 429 = -2.30784e-10
Gradient: 430 = 2.93807e-09
Gradient: 431 = -2.74213e-10
Gradient: 432 = -3.45722e-10
Gradient: 433 = 6.52743e-11
Gradient: 434 = -3.08376e-10
Gradient: 435 = -6.08907e-10
Gradient: 436 = 1.3485e-09
Gradient: 437 = 1.79625e-10
Gradient: 438 = 1.73688e-12
Gradient: 439 = 3.06954e-10
Gradient: 440 = 1.5321e-09
Gradient: 441 = 1.02153e-09
Gradient: 442 = 7.60679e-10
Gradient: 443 = -2.39538e-10
Gradient: 444 = 8.78913e-10
Gradient: 445 = 4.48483e-12
Gradient: 446 = -1.61731e-09
Gradient: 447 = -4.34341e-10
Gradient: 448 = 2.92118e-10
Gradient: 449 = 2.86718e-10
Gradient: 450 = -6.24511e-10
Gradient: 451 = -1.55762e-09
Gradient: 452 = 1.14676e-09
Gradient: 453 = 8.80107e-10
Gradient: 454 = 2.7859e-10
Gradient: 455 = -6.01517e-10
Gradient: 456 = -9.11882e-10
Gradient: 457 = 1.14639e-10
Gradient: 458 = 1.20201e-09
Gradient: 459 = 1.23356e-09
Gradient: 460 = 1.52738e-10
Gradient: 461 = -6.53699e-10
Gradient: 462 = 1.86365e-10
Gradient: 463 = 2.2352e-09
Gradient: 464 = -4.56566e-10
Gradient: 465 = 4.72937e-10
Gradient: 466 = -1.05348e-09
Gradient: 467 = -8.24571e-10
Gradient: 468 = 1.96485e-09
Gradient: 469 = 4.36917e-10
Gradient: 470 = 1.34708e-09
Gradient: 471 = -1.09821e-09
Gradient: 472 = -3.68175e-10
Gradient: 473 = 3.06954e-12
Gradient: 474 = 3.21227e-10
Gradient: 475 = 3.26509e-10
Gradient: 476 = -1.15523e-09
Gradient: 477 = -8.58677e-10
Gradient: 478 = 2.6705e-10
Gradient: 479 = -4.76007e-10
Gradient: 480 = 1.25056e-12
Gradient: 481 = -8.24912e-10
Gradient: 482 = -4.56115e-10
Gradient: 483 = 1.39516e-09
Gradient: 484 = -6.89909e-10
Gradient: 485 = -7.70967e-10
Gradient: 486 = 2.46587e-10
Gradient: 487 = 7.08894e-10
Gradient: 488 = -3.54644e-10
Gradient: 489 = 5.14035e-10
Gradient: 490 = -7.47377e-10
Gradient: 491 = -1.25965e-10
Gradient: 492 = 9.93339e-10
Gradient: 493 = -8.09905e-10
Gradient: 494 = -7.93163e-11
Gradient: 495 = 8.12406e-10
Gradient: 496 = -7.5687e-10
Gradient: 497 = -3.08091e-10
Gradient: 498 = -4.83169e-10
Gradient: 499 = -1.2102e-10
Gradient: 500 = 2.39688e-10
Gradient: 501 = 2.97291e-11
Gradient: 502 = -2.21826e-09
Gradient: 503 = -5.78837e-10
Gradient: 504 = -1.74771e-09
Gradient: 505 = -1.20974e-09
Gradient: 506 = 4.87543e-10
Gradient: 507 = -1.74418e-09
Gradient: 508 = 2.84842e-10
Gradient: 509 = -1.37879e-09
Gradient: 510 = 4.88967e-10
Gradient: 511 = 6.58588e-10
Gradient: 512 = -5.88058e-11
Gradient: 513 = 1.76681e-09
Gradient: 514 = 1.83343e-09
Gradient: 515 = -1.16529e-11
Gradient: 516 = 1.18149e-09
Gradient: 517 = -6.45855e-10
Gradient: 518 = -5.95687e-11
Gradient: 519 = 5.81394e-10
Gradient: 520 = 1.54671e-10
Gradient: 521 = -6.58304e-10
Gradient: 522 = -3.12525e-10
Gradient: 523 = 4.65832e-10
Gradient: 524 = 6.95847e-10
Gradient: 525 = -5.00222e-11
Gradient: 526 = 1.11072e-10
Gradient: 527 = 4.8783e-10
Gradient: 528 = -8.76224e-10
Gradient: 529 = 3.14458e-10
Gradient: 530 = 1.93381e-10
Gradient: 531 = 4.81521e-10
Gradient: 532 = -8.20364e-10
Gradient: 533 = -6.74731e-11
Gradient: 534 = -3.44739e-10
Gradient: 535 = -5.17844e-11
Gradient: 536 = -4.33033e-10
Gradient: 537 = 2.31233e-09
Gradient: 538 = -5.60931e-10
Gradient: 539 = 1.00675e-09
Gradient: 540 = -2.55227e-11
Gradient: 541 = 1.60753e-09
Gradient: 542 = 1.54614e-09
Gradient: 543 = 1.1355e-09
Gradient: 544 = -7.59769e-10
Gradient: 545 = 1.55978e-10
Gradient: 546 = 1.09144e-09
Gradient: 547 = -2.41585e-10
Gradient: 548 = -8.66976e-10
Gradient: 549 = -4.38035e-10
Gradient: 550 = 6.88374e-10
Gradient: 551 = 1.28648e-09
Gradient: 552 = 3.49701e-10
Gradient: 553 = 6.04622e-10
Gradient: 554 = 8.36849e-10
Gradient: 555 = 4.28599e-11
[...]
	Block[ 2]            0.00000 [K]
	Block[ 3]            0.00000 [K]
	Block[ 4]            0.00000 [K]
	------------------------------------------------------------------------------
	Average              0.00000 [K] +/-            0.00000 [K]

Average Adsorbate Bend-Bend cross term energy:
==============================================
	Block[ 0]            0.00000 [K]
	Block[ 1]            0.00000 [K]
	Block[ 2]            0.00000 [K]
	Block[ 3]            0.00000 [K]
	Block[ 4]            0.00000 [K]
	------------------------------------------------------------------------------
	Average              0.00000 [K] +/-            0.00000 [K]

Average Adsorbate Bond-Bend cross term energy:
=================================================
	Block[ 0]            0.00000 [K]
	Block[ 1]            0.00000 [K]
	Block[ 2]            0.00000 [K]
	Block[ 3]            0.00000 [K]
	Block[ 4]            0.00000 [K]
	------------------------------------------------------------------------------
	Average              0.00000 [K] +/-            0.00000 [K]

Average Adsorbate Bond-Torsion cross term energy:
=================================================
	Block[ 0]            0.00000 [K]
	Block[ 1]            0.00000 [K]
	Block[ 2]            0.00000 [K]
	Block[ 3]            0.00000 [K]
	Block[ 4]            0.00000 [K]
	------------------------------------------------------------------------------
	Average              0.00000 [K] +/-            0.00000 [K]

Average Adsorbate Bend-Torsion cross term energy:
=================================================
	Block[ 0]            0.00000 [K]
	Block[ 1]            0.00000 [K]
	Block[ 2]            0.00000 [K]
	Block[ 3]            0.00000 [K]
	Block[ 4]            0.00000 [K]
	------------------------------------------------------------------------------
	Average              0.00000 [K] +/-            0.00000 [K]

Average Adsorbate Intra Van der Waals energy:
=============================================
	Block[ 0]            0.00000 [K]
	Block[ 1]            0.00000 [K]
	Block[ 2]            0.00000 [K]
	Block[ 3]            0.00000 [K]
	Block[ 4]            0.00000 [K]
	------------------------------------------------------------------------------
	Average              0.00000 [K] +/-            0.00000 [K]

Average Adsorbate Intra charge-charge Coulomb energy:
=======================================
	Block[ 0]            0.00000 [K]
	Block[ 1]            0.00000 [K]
	Block[ 2]            0.00000 [K]
	Block[ 3]            0.00000 [K]
	Block[ 4]            0.00000 [K]
	------------------------------------------------------------------------------
	Average              0.00000 [K] +/-            0.00000 [K]

Average Adsorbate Intra charge-bonddipole Coulomb energy:
=======================================
	Block[ 0]            0.00000 [K]
	Block[ 1]            0.00000 [K]
	Block[ 2]            0.00000 [K]
	Block[ 3]            0.00000 [K]
	Block[ 4]            0.00000 [K]
	------------------------------------------------------------------------------
	Average              0.00000 [K] +/-            0.00000 [K]

Average Adsorbate Intra bonddipole-bonddipole Coulomb energy:
=======================================
	Block[ 0]            0.00000 [K]
	Block[ 1]            0.00000 [K]
	Block[ 2]            0.00000 [K]
	Block[ 3]            0.00000 [K]
	Block[ 4]            0.00000 [K]
	------------------------------------------------------------------------------
	Average              0.00000 [K] +/-            0.00000 [K]

Average Cation Bond stretch energy:
=================================
	Block[ 0]            0.00000 [K]
	Block[ 1]            0.00000 [K]
	Block[ 2]            0.00000 [K]
	Block[ 3]            0.00000 [K]
	Block[ 4]            0.00000 [K]
	------------------------------------------------------------------------------
	Average              0.00000 [K] +/-            0.00000 [K]

Average Cation UreyBradley stretch energy:
==========================================
	Block[ 0]            0.00000 [K]
	Block[ 1]            0.00000 [K]
	Block[ 2]            0.00000 [K]
	Block[ 3]            0.00000 [K]
	Block[ 4]            0.00000 [K]
	------------------------------------------------------------------------------
	Average              0.00000 [K] +/-            0.00000 [K]

Average Cation Bend angle energy:
=================================
	Block[ 0]            0.00000 [K]
	Block[ 1]            0.00000 [K]
	Block[ 2]            0.00000 [K]
	Block[ 3]            0.00000 [K]
	Block[ 4]            0.00000 [K]
	------------------------------------------------------------------------------
	Average              0.00000 [K] +/-            0.00000 [K]

Average Cation Bend angle inversion energy:
===========================================
	Block[ 0]            0.00000 [K]
	Block[ 1]            0.00000 [K]
	Block[ 2]            0.00000 [K]
	Block[ 3]            0.00000 [K]
	Block[ 4]            0.00000 [K]
	------------------------------------------------------------------------------
	Average              0.00000 [K] +/-            0.00000 [K]

Average Cation Torsion energy:
==============================
	Block[ 0]            0.00000 [K]
	Block[ 1]            0.00000 [K]
	Block[ 2]            0.00000 [K]
	Block[ 3]            0.00000 [K]
	Block[ 4]            0.00000 [K]
	------------------------------------------------------------------------------
	Average              0.00000 [K] +/-            0.00000 [K]

Average Cation Improper Torsion energy:
=======================================
	Block[ 0]            0.00000 [K]
	Block[ 1]            0.00000 [K]
	Block[ 2]            0.00000 [K]
	Block[ 3]            0.00000 [K]
	Block[ 4]            0.00000 [K]
	------------------------------------------------------------------------------
	Average              0.00000 [K] +/-            0.00000 [K]

Average Cation Bond-Bond cross term energy:
=================================================
	Block[ 0]            0.00000 [K]
	Block[ 1]            0.00000 [K]
	Block[ 2]            0.00000 [K]
	Block[ 3]            0.00000 [K]
	Block[ 4]            0.00000 [K]
	------------------------------------------------------------------------------
	Average              0.00000 [K] +/-            0.00000 [K]

Average Cation Bend-Bend cross term energy:
===========================================
	Block[ 0]            0.00000 [K]
	Block[ 1]            0.00000 [K]
	Block[ 2]            0.00000 [K]
	Block[ 3]            0.00000 [K]
	Block[ 4]            0.00000 [K]
	------------------------------------------------------------------------------
	Average              0.00000 [K] +/-            0.00000 [K]

Average Cation Bond-Bend cross term energy:
==============================================
	Block[ 0]            0.00000 [K]
	Block[ 1]            0.00000 [K]
	Block[ 2]            0.00000 [K]
	Block[ 3]            0.00000 [K]
	Block[ 4]            0.00000 [K]
	------------------------------------------------------------------------------
	Average              0.00000 [K] +/-            0.00000 [K]

Average Cation Bond-Torsion cross term energy:
==============================================
	Block[ 0]            0.00000 [K]
	Block[ 1]            0.00000 [K]
	Block[ 2]            0.00000 [K]
	Block[ 3]            0.00000 [K]
	Block[ 4]            0.00000 [K]
	------------------------------------------------------------------------------
	Average              0.00000 [K] +/-            0.00000 [K]

Average Cation Bend-Torsion cross term energy:
==============================================
	Block[ 0]            0.00000 [K]
	Block[ 1]            0.00000 [K]
	Block[ 2]            0.00000 [K]
	Block[ 3]            0.00000 [K]
	Block[ 4]            0.00000 [K]
	------------------------------------------------------------------------------
	Average              0.00000 [K] +/-            0.00000 [K]

Average Cation Intra Van der Waals energy:
==========================================
	Block[ 0]            0.00000 [K]
	Block[ 1]            0.00000 [K]
	Block[ 2]            0.00000 [K]
	Block[ 3]            0.00000 [K]
	Block[ 4]            0.00000 [K]
	------------------------------------------------------------------------------
	Average              0.00000 [K] +/-            0.00000 [K]

Average Cation Intra charge-charge Coulomb energy:
====================================
	Block[ 0]            0.00000 [K]
	Block[ 1]            0.00000 [K]
	Block[ 2]            0.00000 [K]
	Block[ 3]            0.00000 [K]
	Block[ 4]            0.00000 [K]
	------------------------------------------------------------------------------
	Average              0.00000 [K] +/-            0.00000 [K]

Average Cation Intra charge-bonddipole Coulomb energy:
====================================
	Block[ 0]            0.00000 [K]
	Block[ 1]            0.00000 [K]
	Block[ 2]            0.00000 [K]
	Block[ 3]            0.00000 [K]
	Block[ 4]            0.00000 [K]
	------------------------------------------------------------------------------
	Average              0.00000 [K] +/-            0.00000 [K]

Average Cation Intra bonddipole-bonddipole Coulomb energy:
====================================
	Block[ 0]            0.00000 [K]
	Block[ 1]            0.00000 [K]
	Block[ 2]            0.00000 [K]
	Block[ 3]            0.00000 [K]
	Block[ 4]            0.00000 [K]
	------------------------------------------------------------------------------
	Average              0.00000 [K] +/-            0.00000 [K]

Average Host-Host energy:
=========================
	Block[ 0] 0.00000            Van der Waals: 0.00000            Coulomb: 0.00000            [K]
	Block[ 1] 0.00000            Van der Waals: 0.00000            Coulomb: 0.00000            [K]
	Block[ 2] 0.00000            Van der Waals: 0.00000            Coulomb: 0.00000            [K]
	Block[ 3] 0.00000            Van der Waals: 0.00000            Coulomb: 0.00000            [K]
	Block[ 4] 0.00000            Van der Waals: 0.00000            Coulomb: 0.00000            [K]
	------------------------------------------------------------------------------
	Average   0.00000            Van der Waals: 0.000000           Coulomb: 0.00000            [K]
	      +/- 0.00000                       +/- 0.000000                +/- 0.00000            [K]

Average Adsorbate-Adsorbate energy:
===================================
	Block[ 0] 0.00000            Van der Waals: 0.00000            Coulomb: 0.00000            [K]
	Block[ 1] 0.00000            Van der Waals: 0.00000            Coulomb: 0.00000            [K]
	Block[ 2] 0.00000            Van der Waals: 0.00000            Coulomb: 0.00000            [K]
	Block[ 3] 0.00000            Van der Waals: 0.00000            Coulomb: 0.00000            [K]
	Block[ 4] 0.00000            Van der Waals: 0.00000            Coulomb: 0.00000            [K]
	------------------------------------------------------------------------------
	Average   0.00000            Van der Waals: 0.000000           Coulomb: 0.00000            [K]
	      +/- 0.00000                       +/- 0.000000                +/- 0.00000            [K]

Average Cation-Cation energy:
=============================
	Block[ 0] 0.00000            Van der Waals: 0.00000            Coulomb: 0.00000            [K]
	Block[ 1] 0.00000            Van der Waals: 0.00000            Coulomb: 0.00000            [K]
	Block[ 2] 0.00000            Van der Waals: 0.00000            Coulomb: 0.00000            [K]
	Block[ 3] 0.00000            Van der Waals: 0.00000            Coulomb: 0.00000            [K]
	Block[ 4] 0.00000            Van der Waals: 0.00000            Coulomb: 0.00000            [K]
	------------------------------------------------------------------------------
	Average   0.00000            Van der Waals: 0.000000           Coulomb: 0.00000            [K]
	      +/- 0.00000                       +/- 0.000000                +/- 0.00000            [K]

Average Host-Adsorbate energy:
==============================
	Block[ 0] 0.00000            Van der Waals: 0.00000            Coulomb: 0.00000            [K]
	Block[ 1] 0.00000            Van der Waals: 0.00000            Coulomb: 0.00000            [K]
	Block[ 2] 0.00000            Van der Waals: 0.00000            Coulomb: 0.00000            [K]
	Block[ 3] 0.00000            Van der Waals: 0.00000            Coulomb: 0.00000            [K]
	Block[ 4] 0.00000            Van der Waals: 0.00000            Coulomb: 0.00000            [K]
	------------------------------------------------------------------------------
	Average   0.00000            Van der Waals: 0.000000           Coulomb: 0.00000            [K]
	      +/- 0.00000                       +/- 0.000000                +/- 0.00000            [K]

Average Host-Cation energy:
===========================
	Block[ 0] 0.00000            Van der Waals: 0.00000            Coulomb: 0.00000            [K]
	Block[ 1] 0.00000            Van der Waals: 0.00000            Coulomb: 0.00000            [K]
	Block[ 2] 0.00000            Van der Waals: 0.00000            Coulomb: 0.00000            [K]
	Block[ 3] 0.00000            Van der Waals: 0.00000            Coulomb: 0.00000            [K]
	Block[ 4] 0.00000            Van der Waals: 0.00000            Coulomb: 0.00000            [K]
	------------------------------------------------------------------------------
	Average   0.00000            Van der Waals: 0.000000           Coulomb: 0.00000            [K]
	      +/- 0.00000                       +/- 0.000000                +/- 0.00000            [K]

Average Adsorbate-Cation energy:
================================
	Block[ 0] 0.00000            Van der Waals: 0.00000            Coulomb: 0.00000            [K]
	Block[ 1] 0.00000            Van der Waals: 0.00000            Coulomb: 0.00000            [K]
	Block[ 2] 0.00000            Van der Waals: 0.00000            Coulomb: 0.00000            [K]
	Block[ 3] 0.00000            Van der Waals: 0.00000            Coulomb: 0.00000            [K]
	Block[ 4] 0.00000            Van der Waals: 0.00000            Coulomb: 0.00000            [K]
	------------------------------------------------------------------------------
	Average   0.00000            Van der Waals: 0.000000           Coulomb: 0.00000            [K]
	      +/- 0.00000                       +/- 0.000000                +/- 0.00000            [K]

Host polarization energy:
=======================
	Block[ 0]            0.00000 [K]
	Block[ 1]            0.00000 [K]
	Block[ 2]            0.00000 [K]
	Block[ 3]            0.00000 [K]
	Block[ 4]            0.00000 [K]
	------------------------------------------------------------------------------
	Average              0.00000 [K] +/-            0.00000 [K]

Adsorbate polarization energy:
=======================
	Block[ 0]            0.00000 [K]
	Block[ 1]            0.00000 [K]
	Block[ 2]            0.00000 [K]
	Block[ 3]            0.00000 [K]
	Block[ 4]            0.00000 [K]
	------------------------------------------------------------------------------
	Average              0.00000 [K] +/-            0.00000 [K]

Cation polarization energy:
=======================
	Block[ 0]            0.00000 [K]
	Block[ 1]            0.00000 [K]
	Block[ 2]            0.00000 [K]
	Block[ 3]            0.00000 [K]
	Block[ 4]            0.00000 [K]
	------------------------------------------------------------------------------
	Average              0.00000 [K] +/-            0.00000 [K]

Host back-polarization energy:
=======================
	Block[ 0]            0.00000 [K]
	Block[ 1]            0.00000 [K]
	Block[ 2]            0.00000 [K]
	Block[ 3]            0.00000 [K]
	Block[ 4]            0.00000 [K]
	------------------------------------------------------------------------------
	Average              0.00000 [K] +/-            0.00000 [K]

Adsorbate back-polarization energy:
=======================
	Block[ 0]            0.00000 [K]
	Block[ 1]            0.00000 [K]
	Block[ 2]            0.00000 [K]
	Block[ 3]            0.00000 [K]
	Block[ 4]            0.00000 [K]
	------------------------------------------------------------------------------
	Average              0.00000 [K] +/-            0.00000 [K]

Cation back-polarization energy:
=======================
	Block[ 0]            0.00000 [K]
	Block[ 1]            0.00000 [K]
	Block[ 2]            0.00000 [K]
	Block[ 3]            0.00000 [K]
	Block[ 4]            0.00000 [K]
	------------------------------------------------------------------------------
	Average              0.00000 [K] +/-            0.00000 [K]

Tail-correction energy:
=======================
	Block[ 0]            0.00000 [K]
	Block[ 1]            0.00000 [K]
	Block[ 2]            0.00000 [K]
	Block[ 3]            0.00000 [K]
	Block[ 4]            0.00000 [K]
	------------------------------------------------------------------------------
	Average              0.00000 [K] +/-            0.00000 [K]

Distance-constraints energy:
=======================
	Block[ 0]            0.00000 [K]
	Block[ 1]            0.00000 [K]
	Block[ 2]            0.00000 [K]
	Block[ 3]            0.00000 [K]
	Block[ 4]            0.00000 [K]
	------------------------------------------------------------------------------
	Average              0.00000 [K] +/-            0.00000 [K]

Angle-constraints energy:
=======================
	Block[ 0]            0.00000 [K]
	Block[ 1]            0.00000 [K]
	Block[ 2]            0.00000 [K]
	Block[ 3]            0.00000 [K]
	Block[ 4]            0.00000 [K]
	------------------------------------------------------------------------------
	Average              0.00000 [K] +/-            0.00000 [K]

Dihedral-constraints energy:
=======================
	Block[ 0]            0.00000 [K]
	Block[ 1]            0.00000 [K]
	Block[ 2]            0.00000 [K]
	Block[ 3]            0.00000 [K]
	Block[ 4]            0.00000 [K]
	------------------------------------------------------------------------------
	Average              0.00000 [K] +/-            0.00000 [K]

Inversion-bend constraints energy:
=======================
	Block[ 0]            0.00000 [K]
	Block[ 1]            0.00000 [K]
	Block[ 2]            0.00000 [K]
	Block[ 3]            0.00000 [K]
	Block[ 4]            0.00000 [K]
	------------------------------------------------------------------------------
	Average              0.00000 [K] +/-            0.00000 [K]

Out-of-plane-distance constraints energy:
=======================
	Block[ 0]            0.00000 [K]
	Block[ 1]            0.00000 [K]
	Block[ 2]            0.00000 [K]
	Block[ 3]            0.00000 [K]
	Block[ 4]            0.00000 [K]
	------------------------------------------------------------------------------
	Average              0.00000 [K] +/-            0.00000 [K]

Exclusion-constraints energy:
=======================
	Block[ 0]            0.00000 [K]
	Block[ 1]            0.00000 [K]
	Block[ 2]            0.00000 [K]
	Block[ 3]            0.00000 [K]
	Block[ 4]            0.00000 [K]
	------------------------------------------------------------------------------
	Average              0.00000 [K] +/-            0.00000 [K]

Total energy:
=============
	Block[ 0]            0.00000 [K]
	Block[ 1]            0.00000 [K]
	Block[ 2]            0.00000 [K]
	Block[ 3]            0.00000 [K]
	Block[ 4]            0.00000 [K]
	------------------------------------------------------------------------------
	Average              0.00000 [K] +/-            0.00000 [K]

Number of molecules:
====================


Average Widom Rosenbluth factor:
================================

Average Henry coefficient:
==========================

Average adsorption energy <U_gh>_1-<U_h>_0 obtained from Widom-insertion:
(Note: the total heat of adsorption is dH=<U_gh>_1-<U_h>_0 - <U_g> - RT)
=========================================================================

Simulation finished,  1 warnings

Thu Apr 18 12:28:40 2013
Simulation finished on Thursday, April 18.
The end time was 12:28 PM.

