# vtk DataFile Version 1.0
Cube
ASCII

DATASET POLYDATA
POINTS 72 float
1.364944 4.035750 10.303151
6.648134 4.035750 9.640212
2.125821 2.634538 9.137014
0.964733 2.624852 11.618156
2.198773 0.531105 7.333308
1.373807 0.894322 7.561908
4.550948 0.521419 7.483849
5.338416 0.884636 7.821173
3.348271 1.047681 7.875535
3.259638 2.205134 8.827569
2.044006 12.107250 3.333651
3.578716 12.107250 2.670712
1.283129 13.508462 2.167514
2.444217 13.518148 4.648656
1.210177 15.611895 0.363808
2.035143 15.248678 0.592407
5.675902 15.621581 0.514349
4.888434 15.258364 0.851673
0.060679 15.095319 0.906035
0.149312 13.937866 1.858069
4.773894 4.035750 10.605349
3.239184 4.035750 11.268288
5.534771 5.436962 11.771485
4.373683 5.446648 9.290344
5.607723 7.540395 13.575192
4.782757 7.177178 13.346592
1.141998 7.550081 13.424651
1.929466 7.186864 13.087327
6.757221 7.023819 13.032965
6.668588 5.866366 12.080931
5.452956 12.107250 3.635849
0.169766 12.107250 4.298788
4.692079 10.706038 4.801986
5.853167 10.696352 2.320843
4.619127 8.602605 6.605692
5.444093 8.965822 6.377092
2.266952 8.592919 6.455151
1.479484 8.956136 6.117827
3.469629 9.119181 6.063465
3.558262 10.276634 5.111431
4.692079 13.508462 4.801986
5.853167 13.518148 2.320843
4.619127 15.611895 6.605692
5.444093 15.248678 6.377092
2.266952 15.621581 6.455151
1.479484 15.258364 6.117827
3.469629 15.095319 6.063465
3.558262 13.937866 5.111431
5.534771 2.634538 11.771485
4.373683 2.624852 9.290344
5.607723 0.531105 13.575192
4.782757 0.894322 13.346592
1.141998 0.521419 13.424651
1.929466 0.884636 13.087327
6.757221 1.047681 13.032965
6.668588 2.205134 12.080931
1.283129 10.706038 2.167514
2.444217 10.696352 4.648657
1.210177 8.602605 0.363808
2.035143 8.965822 0.592407
5.675902 8.592919 0.514349
4.888434 8.956136 0.851673
0.060679 9.119181 0.906035
0.149312 10.276634 1.858069
2.125821 5.436962 9.137014
0.964733 5.446648 11.618156
2.198773 7.540395 7.333308
1.373807 7.177178 7.561908
4.550948 7.550081 7.483849
5.338416 7.186864 7.821173
3.348271 7.023819 7.875535
3.259638 5.866366 8.827569
POINT_DATA 72
SCALARS my_scalars float
LOOKUP_TABLE default
2
1.52
1.52
1.52
1.7
1.09
1.7
1.09
1.7
1.7
2
1.52
1.52
1.52
1.7
1.09
1.7
1.09
1.7
1.7
2
1.52
1.52
1.52
1.7
1.09
1.7
1.09
1.7
1.7
2
1.52
1.52
1.52
1.7
1.09
1.7
1.09
1.7
1.7
1.52
1.52
1.7
1.09
1.7
1.09
1.7
1.7
1.52
1.52
1.7
1.09
1.7
1.09
1.7
1.7
1.52
1.52
1.7
1.09
1.7
1.09
1.7
1.7
1.52
1.52
1.7
1.09
1.7
1.09
1.7
1.7
VECTORS vectors float
0.4375 0 0
0.03125 0 0
0.03125 0 0
0.03125 0 0
0.3125 0 0
0.25 0 0
0.3125 0 0
0.25 0 0
0.3125 0 0
0.3125 0 0
0.4375 0 0
0.03125 0 0
0.03125 0 0
0.03125 0 0
0.3125 0 0
0.25 0 0
0.3125 0 0
0.25 0 0
0.3125 0 0
0.3125 0 0
0.4375 0 0
0.03125 0 0
0.03125 0 0
0.03125 0 0
0.3125 0 0
0.25 0 0
0.3125 0 0
0.25 0 0
0.3125 0 0
0.3125 0 0
0.4375 0 0
0.03125 0 0
0.03125 0 0
0.03125 0 0
0.3125 0 0
0.25 0 0
0.3125 0 0
0.25 0 0
0.3125 0 0
0.3125 0 0
0.03125 0 0
0.03125 0 0
0.3125 0 0
0.25 0 0
0.3125 0 0
0.25 0 0
0.3125 0 0
0.3125 0 0
0.03125 0 0
0.03125 0 0
0.3125 0 0
0.25 0 0
0.3125 0 0
0.25 0 0
0.3125 0 0
0.3125 0 0
0.03125 0 0
0.03125 0 0
0.3125 0 0
0.25 0 0
0.3125 0 0
0.25 0 0
0.3125 0 0
0.3125 0 0
0.03125 0 0
0.03125 0 0
0.3125 0 0
0.25 0 0
0.3125 0 0
0.25 0 0
0.3125 0 0
0.3125 0 0
