Compiler and run-time data
===========================================================================
RASPA 1.8-0
Compiled as a 64-bits application
Compiler: gcc 4.2.1 (Based on Apple Inc. build 5658) (LLVM build 2336.11.00)
Compile Date = Apr 18 2013, Compile Time = 10:46:58

Thu Apr 18 11:56:27 2013
Simulation started on Thursday, April 18.
The start time was 11:56 AM.

Cpu data:    x86_64
Cpu Model:   MacPro5,1
Host name:   server.darkwing.nl
OS release:  12.3.0
OS type:     Darwin
OS version:  12D78


Simulation
===========================================================================
Dimensions: 3
Random number seed: 1366278986
RASPA directory set to: /Users/dubbelda/RASPA/simulations/
String appended to output-files: 
Number of cycles: 1
Number of initializing cycles: 0
Number of equilibration cycles: 0
Print every: 1
Triclinic boundary condition applied
Timestep: 0.000500
Initialization Ensemble: NPT full cell fluctuations (Parinello-Rahman) using the upper triangle of the box-matrix
          (constant number of particles N, constant average pressure P, constant average temperature T)
Production run ensemble: NPT full cell fluctuations (Parinello-Rahman) using the upper triangle of the box-matrix
          (constant number of particles N, constant average pressure P, constant average temperature T)
	Degrees of freedom:                        432
	Translational Degrees of freedom:          432
	Rotational Degrees of freedom:             0
	Degrees of freedom Framework:              432


Mutual consistent basic set of units:
======================================
Unit of temperature: Kelvin
Unit of length:      1e-10 [m]
Unit of time:        1e-12 [s]
Unit of mass:        1.66054e-27 [kg]
Unit of charge:      1.60218e-19 [C/particle]

Derived units and their conversion factors:
===========================================
Unit of energy:              1.66054e-23 [J]
Unit of force:               1.66054e-13 [N]
Unit of pressure:            1.66054e+07 [Pa]
Unit of velocity:            100 [m/s]
Unit of acceleration:        1e-08 [m^2/s]
Unit of diffusion:           1e-08 [m^2/s]
Unit of dipole moment:       1.60218e-29 [C.m]
Unit of electric potential:  0.000103643 [V]
Unit of electric field:      1.03643e+06 [V]
Unit of polarizability:      1.54587e-35 [-]
Unit of Coulomb potential:   167101.0800066561  [K]
Unit of dielectric constant: 0.0000154587       [s^2 C^2/(kg m^3)]
Unit of wave vectors:        5.3088374589       [cm^1]
Boltzmann constant:          0.8314464919       [-]

Internal conversion factors:
===========================================
Energy to Kelvin:                                    1.2027242847
FH correction factor                                 2.0211930949
Heat capacity conversion factor:                    10.0000088723
From Debye to internal units:                        4.8032067991
Isothermal compressibility conversion factor:        0.0000000602

Energy conversion factors:
===========================================
From mdyne/A to kcal/mol/A^2:           143.933
From mdyne/A to kj/mol/A^2:             602.214
From mdyne/A to K/A^2:                  72429.7
From mdyne A/rad^2 to kcal/mol/deg^2:   0.0438444


Properties computed
===========================================================================
Movies: yes
	Movie snapshots are appended to file every 1 cycles
Radial Distribution Function: no
Number of molecules GCMC histogram: no
Histogram of the molecule positions: no
Free energy profiles: no
Pore Size Distribution Function: no
End-to-end distance: no
Histogram of the energy of the system: no
Compute thermodynamic factors: no
Framework spacing histograms: no
Residence times histograms: no
Distance histograms: no
Bend Angle histograms: no
Dihedral angle histograms: no
Angle between planes histograms: no
Molecule properties: no
Infra-red spectra: no
Mean-squared displacement using modified order-N algorithm: no
Velocity-autocorrelation function modified order-N algorithm: no
Rotational velocity-autocorrelation function modified order-N algorithm: no
Molecular orientation-autocorrelation function modified order-N algorithm: no
Mean-squared displacement (conventional algorithm): no
Velocity-autocorrelation function (conventional algorithm): no
3D density grid for adsorbates: no
Compute cation an/or adsorption sites: no
dcTST snapshots: no
Compute pressure and stress: no


VTK
===========================================================================
VTK fractional-range position framework atoms: [-0.001000,1.001000] [-0.001000,1.001000] [-0.001000,1.001000]
VTK fractional-range position framework bonds: [-0.151000,1.151000] [-0.151000,1.151000] [-0.151000,1.151000]
VTK fractional-range com-position adsorbate molecules: [-0.101000,1.101000] [-0.101000,1.101000] [-0.101000,1.101000]
VTK fractional-range com-position cation molecules: [-0.101000,1.101000] [-0.101000,1.101000] [-0.101000,1.101000]
	3D free energy grid made for the full simulation-cell


Thermo/Baro-stat NHC parameters
===========================================================================
External temperature: 300.000000 [K]
Beta: 0.004009 [energy unit]
External Pressure: 0.000000 [Pa]


Thermostat chain-length: 3
Timescale parameter for thermostat: 0.150000 [ps]
Barostat chain-length:   3
Timescale parameter for barostat:   0.150000 [ps]

Number of Yoshida-Suzuki decomposition steps: 5
Number of respa steps: 5


Method and settings for electrostatics
===============================================================================
Dielectric constant of the medium : 1.000000
Charge from charge-equilibration: no
Ewald summation is used (exact solution of a periodic system)
Relative precision                : 1e-10
Alpha convergence parameter       : 0.363526
kvec (x,y,z)                      : 8 8 8


CFC-RXMC parameters
===========================================================================
Number of reactions: 0


Rattle parameters
===========================================================================
Distance constraint type: r^2-r^2_0
Bend angle constraint type: theta-theta_0
Dihedral angle constraint type: phi-phi_0
Inversion-bend angle constraint type: chi-chi_0
Out-of-plane distance constraint type: r-r_0


Spectra parameters
===========================================================================
Compute normal modes: no


Minimization parameters
===========================================================================
Generalized coordinates are: Cartesian center-of-mass, elements of the orientational matrix p1,p2,p3 and strain
Potential derivatives are evaluated: analytically
Translation of the system is removed from the generalized Hessian: no
Rotation of the system is removed from the generalized Hessian: no
Maximum step-length: 0.3
Convergence factor: 1
Maximum number of minimization steps: 10000
Use gradients in the line-minimizations: yes
RMS gradient tolerance: 1e-06
Maximum gradient tolerance: 1e-06

Distance constraints: 0
Angle constraints: 0
Dihedral constraints: 0

Improper dihedral constraints: 0

Inversion-bend constraints: 0

Out-of-plane constraints: 0

Harmonic distance constraints: 0
Harmonic angle constraints: 0
Harmonic dihedral constraints: 0

Dihedral mid-point measurements: 0

Number of fixed framework atoms: 0  (active: 144)
fixed atom-list: 
Number of active framework atoms: 144  (fixed: 0)
active atom-list: 

Fixed adsorbate atoms:  
Fixed adsorbate groups (center-of-mass):  
Fixed adsorbate groups (orientation):  

Fixed cation atoms:  
Fixed cation groups (center-of-mass):  
Fixed cation groups (orientation):  


dcTST parameters
===========================================================================
Free energy profiles computed: no
Free energy profiles written every 5000 cycles
Free energy mapping: mapped to a,b,c-coordinates
BarrierPosition:       0.0000000000       0.0000000000       0.0000000000
BarrierNormal:         0.0000000000       0.0000000000       0.0000000000
Start with a molecule on top of the barrier: no
Maximum distance to barrier (e.g. distance to minumum free energy):       0.0000000000 [A]
Maximum trajectory time:      10.0000000000 [ps]
Each configuration is used with 5 different initial velocities


Cbmc parameters
===========================================================================
Biasing method: using only the VDW part
Number of trial positions:                             10
Number of trial positions coupled Torsion-selection:   100
Number of trial position for the first bead:           10
Number of trial moves per open bead:                   150
Target acceptance ratio small-mc scheme:               0.400000
Energy overlap criteria:                               100000
Minimal Rosenbluth factor:                             1e-150


Pseudo atoms: 16
===========================================================================
Pseudo Atom[   0] Name UNIT     Oxidation: +0       Element: H    pdb-name: H    Scat. Types:   1   1 Mass=1.000000000  B-factor:1.000   
                 Charge=1.000000000          Polarization=0.000000000  [A^3] (considered a charged atom and no polarization)  Interactions: yes
                 Anisotropic factor:    0.000 [-] (Relative), Radius:    1.000 [A], Framework-atom:  no
Pseudo Atom[   1] Name O        Oxidation: +0       Element: O    pdb-name: O    Scat. Types:   9   8 Mass=15.999400000 B-factor:1.000   
                 Charge=-0.550000000         Polarization=0.000000000  [A^3] (considered a charged atom and no polarization)  Interactions: yes
                 Anisotropic factor:    0.000 [-] (Relative), Radius:    0.640 [A], Framework-atom: yes (charge from pseudo-atoms file)
Pseudo Atom[   2] Name Oa       Oxidation: +0       Element: O    pdb-name: O    Scat. Types:   9   8 Mass=15.999400000 B-factor:1.000   
                 Charge=-0.550000000         Polarization=0.000000000  [A^3] (considered a charged atom and no polarization)  Interactions:  no
                 Anisotropic factor:    0.000 [-] (Relative), Radius:    0.640 [A], Framework-atom:  no
Pseudo Atom[   3] Name Si       Oxidation: +0       Element: Si   pdb-name: Si   Scat. Types:  15  14 Mass=28.085500000 B-factor:1.000   
                 Charge=1.100000000          Polarization=0.000000000  [A^3] (considered a charged atom and no polarization)  Interactions: yes
                 Anisotropic factor:    0.000 [-] (Relative), Radius:    1.140 [A], Framework-atom: yes (charge from pseudo-atoms file)
Pseudo Atom[   4] Name Al       Oxidation: +0       Element: Si   pdb-name: Si   Scat. Types:  15  14 Mass=28.085500000 B-factor:1.000   
                 Charge=1.100000000          Polarization=0.000000000  [A^3] (considered a charged atom and no polarization)  Interactions:  no
                 Anisotropic factor:    0.000 [-] (Relative), Radius:    1.140 [A], Framework-atom:  no
Pseudo Atom[   5] Name Ar       Oxidation: +0       Element: Ar   pdb-name: Ar   Scat. Types:  19  18 Mass=39.948000000 B-factor:1.000   
                 Charge=0.000000000          Polarization=0.000000000  [A^3] (considered a chargeless atom and no polarization)  Interactions: yes
                 Anisotropic factor:    0.000 [-] (Relative), Radius:    1.000 [A], Framework-atom:  no
Pseudo Atom[   6] Name CH4_sp3  Oxidation: +0       Element: C    pdb-name: C    Scat. Types:   7   6 Mass=16.042460000 B-factor:1.000   
                 Charge=0.000000000          Polarization=0.000000000  [A^3] (considered a chargeless atom and no polarization)  Interactions: yes
                 Anisotropic factor:    0.000 [-] (Relative), Radius:    1.000 [A], Framework-atom:  no
Pseudo Atom[   7] Name CH3_sp3  Oxidation: +0       Element: C    pdb-name: C    Scat. Types:   7   6 Mass=15.034520000 B-factor:1.000   
                 Charge=0.000000000          Polarization=0.000000000  [A^3] (considered a chargeless atom and no polarization)  Interactions: yes
                 Anisotropic factor:    0.000 [-] (Relative), Radius:    1.000 [A], Framework-atom:  no
Pseudo Atom[   8] Name CH2_sp3  Oxidation: +0       Element: C    pdb-name: C    Scat. Types:   7   6 Mass=14.026580000 B-factor:1.000   
                 Charge=0.000000000          Polarization=0.000000000  [A^3] (considered a chargeless atom and no polarization)  Interactions: yes
                 Anisotropic factor:    0.000 [-] (Relative), Radius:    1.000 [A], Framework-atom:  no
Pseudo Atom[   9] Name CH_sp3   Oxidation: +0       Element: C    pdb-name: C    Scat. Types:   7   6 Mass=13.018640000 B-factor:1.000   
                 Charge=0.000000000          Polarization=0.000000000  [A^3] (considered a chargeless atom and no polarization)  Interactions: yes
                 Anisotropic factor:    0.000 [-] (Relative), Radius:    1.000 [A], Framework-atom:  no
Pseudo Atom[  10] Name C_sp3    Oxidation: +0       Element: C    pdb-name: C    Scat. Types:   7   6 Mass=12.000000000 B-factor:1.000   
                 Charge=0.000000000          Polarization=0.000000000  [A^3] (considered a chargeless atom and no polarization)  Interactions:  no
                 Anisotropic factor:    0.000 [-] (Relative), Radius:    1.000 [A], Framework-atom:  no
Pseudo Atom[  11] Name C_co2    Oxidation: +0       Element: C    pdb-name: C    Scat. Types:   7   6 Mass=12.000000000 B-factor:1.000   
                 Charge=0.700000000          Polarization=0.000000000  [A^3] (considered a charged atom and no polarization)  Interactions: yes
                 Anisotropic factor:    0.000 [-] (Relative), Radius:    0.720 [A], Framework-atom:  no
Pseudo Atom[  12] Name O_co2    Oxidation: +0       Element: O    pdb-name: O    Scat. Types:   9   8 Mass=15.999400000 B-factor:1.000   
                 Charge=-0.350000000         Polarization=0.000000000  [A^3] (considered a charged atom and no polarization)  Interactions: yes
                 Anisotropic factor:    0.000 [-] (Relative), Radius:    0.680 [A], Framework-atom:  no
Pseudo Atom[  13] Name Ow       Oxidation: +0       Element: O    pdb-name: O    Scat. Types:   9   8 Mass=15.999400000 B-factor:1.000   
                 Charge=0.000000000          Polarization=0.000000000  [A^3] (considered a chargeless atom and no polarization)  Interactions: yes
                 Anisotropic factor:    0.000 [-] (Relative), Radius:    0.500 [A], Framework-atom:  no
Pseudo Atom[  14] Name Hw       Oxidation: +0       Element: H    pdb-name: H    Scat. Types:   1   1 Mass=1.008000000  B-factor:1.000   
                 Charge=0.241000000          Polarization=0.000000000  [A^3] (considered a charged atom and no polarization)  Interactions:  no
                 Anisotropic factor:    0.000 [-] (Relative), Radius:    1.000 [A], Framework-atom:  no
Pseudo Atom[  15] Name Lw       Oxidation: +0       Element: -    pdb-name: L    Scat. Types:   0   3 Mass=0.000000000  B-factor:1.000   
                 Charge=-0.241000000         Polarization=0.000000000  [A^3] (considered a charged atom and no polarization)  Interactions:  no
                 Anisotropic factor:    0.000 [-] (Relative), Radius:    1.000 [A], Framework-atom:  no


Forcefield: Nicholas
===========================================================================
CutOff VDW : 12.000000 (144.000000)
CutOff VDW switching on: 10.800000 (116.640000)
CutOff charge-charge : 12.000000 (144.000000)
CutOff charge-charge switching on: 7.800000 (60.840000)
CutOff charge-bonddipole : 12.000000 (144.000000)
CutOff charge-bondipole switching on: 8.400000 (70.560000)
CutOff bonddipole-bonddipole : 12.000000 (144.000000)
CutOff bonddipole-bondipole switching on: 9.000000 (81.000000)
Polarization is neglected
All potentials are shifted to zero at the Cutoff

General mixing rule: Lorentz-Berthelot mixing rules are used FIRST for cross terms
0 cross terms are overwritten using the individual mixing rules from the file 'force_field_mixing_rules.def'
and then 13 terms are overwritten using the specific interactions from the file 'force_field.def'

The force field and all the interactions:
   UNIT -    UNIT [LENNARD_JONES] p_0/k_B:   1.00000 [K], p_1: 1.00000 [A], shift/k_B:  -0.00000134 [K], tailcorrection: no
      O -       O [LENNARD_JONES] p_0/k_B:  29.43383 [K], p_1: 3.06222 [A], shift/k_B:  -0.03250255 [K], tailcorrection: no
      O -      Si [LENNARD_JONES] p_0/k_B:  49.05711 [K], p_1: 3.48335 [A], shift/k_B:  -0.11732606 [K], tailcorrection: no
      O -      Ar [LENNARD_JONES] p_0/k_B: 107.70000 [K], p_1: 3.15000 [A], shift/k_B:  -0.14089949 [K], tailcorrection: no
      O - CH4_sp3 [LENNARD_JONES] p_0/k_B: 115.00000 [K], p_1: 3.47000 [A], shift/k_B:  -0.26877769 [K], tailcorrection: no
      O - CH3_sp3 [LENNARD_JONES] p_0/k_B:  93.00000 [K], p_1: 3.48000 [A], shift/k_B:  -0.22114266 [K], tailcorrection: no
      O - CH2_sp3 [LENNARD_JONES] p_0/k_B:  60.50000 [K], p_1: 3.58000 [A], shift/k_B:  -0.17049818 [K], tailcorrection: no
      O -  CH_sp3 [LENNARD_JONES] p_0/k_B:  40.00000 [K], p_1: 3.92000 [A], shift/k_B:  -0.19418731 [K], tailcorrection: no
      O -   C_co2 [LENNARD_JONES] p_0/k_B:  50.20000 [K], p_1: 2.78150 [A], shift/k_B:  -0.03113747 [K], tailcorrection: no
      O -   O_co2 [LENNARD_JONES] p_0/k_B:  84.93000 [K], p_1: 2.91950 [A], shift/k_B:  -0.07043596 [K], tailcorrection: no
      O -      Ow [LENNARD_JONES] p_0/k_B:  91.50000 [K], p_1: 3.04850 [A], shift/k_B:  -0.09835446 [K], tailcorrection: no
     Si -      Si [LENNARD_JONES] p_0/k_B:  81.76308 [K], p_1: 3.96239 [A], shift/k_B:  -0.42335835 [K], tailcorrection: no
     Si -      Ow [LENNARD_JONES] p_0/k_B:  85.63950 [K], p_1: 3.52900 [A], shift/k_B:  -0.22144994 [K], tailcorrection: no
     Ar -      Ar [LENNARD_JONES] p_0/k_B: 124.07000 [K], p_1: 3.38000 [A], shift/k_B:  -0.24769804 [K], tailcorrection: no
     Ar - CH4_sp3 [LENNARD_JONES] p_0/k_B: 140.23229 [K], p_1: 3.55000 [A], shift/k_B:  -0.37575039 [K], tailcorrection: no
     Ar - CH3_sp3 [LENNARD_JONES] p_0/k_B: 115.75647 [K], p_1: 3.57000 [A], shift/k_B:  -0.32079374 [K], tailcorrection: no
     Ar - CH2_sp3 [LENNARD_JONES] p_0/k_B:  83.35418 [K], p_1: 3.67000 [A], shift/k_B:  -0.27260937 [K], tailcorrection: no
     Ar -  CH_sp3 [LENNARD_JONES] p_0/k_B:  45.92592 [K], p_1: 4.02500 [A], shift/k_B:  -0.26122023 [K], tailcorrection: no
     Ar -   C_co2 [LENNARD_JONES] p_0/k_B:  57.87823 [K], p_1: 3.09000 [A], shift/k_B:  -0.06747021 [K], tailcorrection: no
     Ar -   O_co2 [LENNARD_JONES] p_0/k_B:  99.00268 [K], p_1: 3.21500 [A], shift/k_B:  -0.14640121 [K], tailcorrection: no
     Ar -      Ow [LENNARD_JONES] p_0/k_B: 105.38620 [K], p_1: 3.23850 [A], shift/k_B:  -0.16279904 [K], tailcorrection: no
CH4_sp3 - CH4_sp3 [LENNARD_JONES] p_0/k_B: 158.50000 [K], p_1: 3.72000 [A], shift/k_B:  -0.56217796 [K], tailcorrection: no
CH4_sp3 - CH3_sp3 [LENNARD_JONES] p_0/k_B: 130.83577 [K], p_1: 3.74000 [A], shift/k_B:  -0.47921501 [K], tailcorrection: no
CH4_sp3 - CH2_sp3 [LENNARD_JONES] p_0/k_B:  94.21253 [K], p_1: 3.84000 [A], shift/k_B:  -0.40420524 [K], tailcorrection: no
CH4_sp3 -  CH_sp3 [LENNARD_JONES] p_0/k_B:  51.90857 [K], p_1: 4.19500 [A], shift/k_B:  -0.37827707 [K], tailcorrection: no
CH4_sp3 -   C_co2 [LENNARD_JONES] p_0/k_B:  65.41789 [K], p_1: 3.26000 [A], shift/k_B:  -0.10514776 [K], tailcorrection: no
CH4_sp3 -   O_co2 [LENNARD_JONES] p_0/k_B: 111.89951 [K], p_1: 3.38500 [A], shift/k_B:  -0.22538960 [K], tailcorrection: no
CH4_sp3 -      Ow [LENNARD_JONES] p_0/k_B: 119.11459 [K], p_1: 3.40850 [A], shift/k_B:  -0.25008586 [K], tailcorrection: no
CH3_sp3 - CH3_sp3 [LENNARD_JONES] p_0/k_B: 108.00000 [K], p_1: 3.76000 [A], shift/k_B:  -0.40842485 [K], tailcorrection: no
CH3_sp3 - CH2_sp3 [LENNARD_JONES] p_0/k_B:  77.76889 [K], p_1: 3.86000 [A], shift/k_B:  -0.34420794 [K], tailcorrection: no
CH3_sp3 -  CH_sp3 [LENNARD_JONES] p_0/k_B:  42.84857 [K], p_1: 4.21500 [A], shift/k_B:  -0.32127575 [K], tailcorrection: no
CH3_sp3 -   C_co2 [LENNARD_JONES] p_0/k_B:  54.00000 [K], p_1: 3.28000 [A], shift/k_B:  -0.09003849 [K], tailcorrection: no
CH3_sp3 -   O_co2 [LENNARD_JONES] p_0/k_B:  92.36883 [K], p_1: 3.40500 [A], shift/k_B:  -0.19274091 [K], tailcorrection: no
CH3_sp3 -      Ow [LENNARD_JONES] p_0/k_B:  98.32461 [K], p_1: 3.42850 [A], shift/k_B:  -0.21380771 [K], tailcorrection: no
CH2_sp3 - CH2_sp3 [LENNARD_JONES] p_0/k_B:  56.00000 [K], p_1: 3.96000 [A], shift/k_B:  -0.28891522 [K], tailcorrection: no
CH2_sp3 -  CH_sp3 [LENNARD_JONES] p_0/k_B:  30.85450 [K], p_1: 4.31500 [A], shift/k_B:  -0.26621710 [K], tailcorrection: no
CH2_sp3 -   C_co2 [LENNARD_JONES] p_0/k_B:  38.88444 [K], p_1: 3.38000 [A], shift/k_B:  -0.07763038 [K], tailcorrection: no
CH2_sp3 -   O_co2 [LENNARD_JONES] p_0/k_B:  66.51316 [K], p_1: 3.50500 [A], shift/k_B:  -0.16509673 [K], tailcorrection: no
CH2_sp3 -      Ow [LENNARD_JONES] p_0/k_B:  70.80181 [K], p_1: 3.52850 [A], shift/k_B:  -0.18292658 [K], tailcorrection: no
 CH_sp3 -  CH_sp3 [LENNARD_JONES] p_0/k_B:  17.00000 [K], p_1: 4.67000 [A], shift/k_B:  -0.23540268 [K], tailcorrection: no
 CH_sp3 -   C_co2 [LENNARD_JONES] p_0/k_B:  21.42429 [K], p_1: 3.73500 [A], shift/k_B:  -0.07784441 [K], tailcorrection: no
 CH_sp3 -   O_co2 [LENNARD_JONES] p_0/k_B:  36.64696 [K], p_1: 3.86000 [A], shift/k_B:  -0.16220080 [K], tailcorrection: no
 CH_sp3 -      Ow [LENNARD_JONES] p_0/k_B:  39.00990 [K], p_1: 3.88350 [A], shift/k_B:  -0.17905562 [K], tailcorrection: no
  C_co2 -   C_co2 [LENNARD_JONES] p_0/k_B:  27.00000 [K], p_1: 2.80000 [A], shift/k_B:  -0.01742667 [K], tailcorrection: no
  C_co2 -   O_co2 [LENNARD_JONES] p_0/k_B:  46.18441 [K], p_1: 2.92500 [A], shift/k_B:  -0.03873754 [K], tailcorrection: no
  C_co2 -      Ow [LENNARD_JONES] p_0/k_B:  49.16230 [K], p_1: 2.94850 [A], shift/k_B:  -0.04326293 [K], tailcorrection: no
  O_co2 -   O_co2 [LENNARD_JONES] p_0/k_B:  79.00000 [K], p_1: 3.05000 [A], shift/k_B:  -0.08516900 [K], tailcorrection: no
  O_co2 -      Ow [LENNARD_JONES] p_0/k_B:  84.09378 [K], p_1: 3.07350 [A], shift/k_B:  -0.09493210 [K], tailcorrection: no
     Ow -      Ow [LENNARD_JONES] p_0/k_B:  89.51600 [K], p_1: 3.09700 [A], shift/k_B:  -0.10577720 [K], tailcorrection: no


MoleculeDefinitions:
===========================================================================
No components defined in 'simulation.input'


Framework Status
===========================================================================
Lowenstein's rule obeyed by framework
	Framework is modelled as: flexible using the model of Nicholas
	==================================================================================

	Number of Bonds definitions: 1
	--------------------------------------------
	Bond interaction between [Si-O] using bond-type: HARMONIC_BOND (192 bonds)
	  args: 2   arg[0]=300724.776636 arg[1]=1.610000 

	Number of Urey-Bradley definitions: 1
	--------------------------------------------
	Urey-Bradley interaction between [Si-(O)-Si] using Urey-Bradley-type:HARMONIC_BOND (96 Urey-Bradleys)
	  args: 2   arg[0]=27488.737702 arg[1]=3.126100 

	Number of Bend definitions: 2
	--------------------------------------------
	Bend interaction between [O-Si-O] using bend-type: HARMONIC_COSINE_BEND (288 bends)
	  args: 2   arg[0]=69537.444166 arg[1]=109.500000 
	Bend interaction between [Si-O-Si] using bend-type: QUARTIC_BEND (96 bends)
	  args: 4   arg[0]=5462.505569 arg[1]=149.500000 arg[2]=-17157.805511 arg[3]=13351.672598 

	Number of Bend/Torsion cross-term definitions: 1
	--------------------------------------------
	Bend/Torsion cross-term interaction between [Si-O-Si-O] using bend/torsion-type:SMOOTHED_THREE_COSINE_DIHEDRAL (576 bend-torsions)
	  args: 3   arg[0]=0.000000 arg[1]=0.000000 arg[2]=-352.419700 


	Number of core/shells:                           0
	Number of bonds:                                 192
	Number of bond-dipoles:                          0
	Number of bends:                                 384
	Number of Urey-Bradleys:                         96
	Number of Inversion bends:                       0
	Number of Torsions:                              0
	Number of Improper Torsions:                     0
	Number of Out-of-planes:                         0
	Number of bond-bond cross terms:                 0
	Number of bond-bend cross terms:                 0
	Number of bend-bend cross terms:                 0
	Number of stretch-torsion cross terms:           0
	Number of bend-torsion cross terms:              576

	Number of charges:                               144
	Number of bonddipoles:                           0

	Number of Intra VDW:                             154752
	Number of Intra Coulomb charge-charge:           154752
	Number of Intra Coulomb charge-bonddipole:       0
	Number of Intra Coulomb bonddipoles:             0
	Number of excluded Intra VDW:                    696
	Number of excluded intra charge-charge:          576
	Number of excluded intra charge-bonddipole:      0
	Number of excluded intra bonddipole-bonddipole:  0


	Number of 1-2 intra-framework pairs: 192
	Number of 1-3 intra-framework pairs: 384
	Number of 1-4 intra-framework pairs: 768
	Number of 1-2,1-3 intra-framework pairs: 576
	Number of 1-2,1-3,1-4 intra-framework pairs: 1152
	Bond interactions are removed (excluded from VDW and Coulomb interactions)
	Bend interactions are removed (excluded from VDW and Coulomb interactions)
	Torsion interactions are *included* in the VDW and Coulomb interactions
	Remove12NeighboursFromVDWInteraction no
	Remove13NeighboursFromVDWInteraction no
	Remove14NeighboursFromVDWInteraction no
	Remove12NeighboursFromChargeChargeInteraction no
	Remove13NeighboursFromChargeChargeInteraction no
	Remove14NeighboursFromChargeChargeInteraction no
	Remove11NeighboursFromChargeBondDipoleInteraction no
	Remove12NeighboursFromChargeBondDipoleInteraction no
	Remove13NeighboursFromChargeBondDipoleInteraction no
	Remove14NeighboursFromChargeBondDipoleInteraction no
	Remove12NeighboursFromBondDipoleBondDipoleInteraction no
	Remove13NeighboursFromBondDipoleBondDipoleInteraction no
	Remove14NeighboursFromBondDipoleBondDipoleInteraction no
	InternalFrameworkLennardJonesInteractions yes


System Properties
===========================================================================
Unit cell size: 15.031000 15.031000 15.031000
Cell angles (radians)  alpha: 1.570796 beta: 1.570796 gamma: 1.570796
Cell angles (degrees)  alpha: 90.000000 beta: 90.000000 gamma: 90.000000
Number of unitcells [a]: 1
Number of unitcells [b]: 1
Number of unitcells [c]: 1

TRICLINIC Boundary conditions: alpha!=90 or beta!=90 or gamma!=90

Cartesian axis A is collinear with crystallographic axis a
Cartesian axis B is collinear with (axb)xA
Cartesian axis C is collinear with (axb)

lengths of cell vectors:
 15.03100  15.03100  15.03100
cosines of cell angles:
  0.00000   0.00000   0.00000
perpendicular cell widths:
 15.03100  15.03100  15.03100
volume of the cell:  3395.968274791001 (A^3)

Orthogonalization matrix Box
Transforms fractional coordinates abc into orthonormal Cartesian coordinates xyz
Deorthogonalization matrix InverseBox
Transforms orthonormal Cartesian coordinates xyz into fractional coordinates xyz

Box[0]:
	   15.031000000000     0.000000000000     0.000000000000
	    0.000000000000    15.031000000000     0.000000000000
	    0.000000000000     0.000000000000    15.031000000000

Inverse box[0]:
	    0.066529173042    -0.000000000000    -0.000000000000
	    0.000000000000     0.066529173042    -0.000000000000
	    0.000000000000     0.000000000000     0.066529173042


Unitcell box[0]:
	   15.031000000000     0.000000000000     0.000000000000
	    0.000000000000    15.031000000000     0.000000000000
	    0.000000000000     0.000000000000    15.031000000000

Unitcell inverse box[0]:
	    0.066529173042    -0.000000000000    -0.000000000000
	    0.000000000000     0.066529173042    -0.000000000000
	    0.000000000000     0.000000000000     0.066529173042

lengths of cell vectors (inverse box):
  0.06653   0.06653   0.06653
cosines of cell angles (inverse box):
 -0.00000  -0.00000  -0.00000
perpendicular cell widths (inverse):
  0.06653   0.06653   0.06653
volume of the cell:  3395.968274791001 (A^3)

Number of Replica Cells: 2 2 2
Replica Box:
	   30.062000000000     0.000000000000     0.000000000000
	    0.000000000000    30.062000000000     0.000000000000
	    0.000000000000     0.000000000000    30.062000000000

Shift of the Replica cells:
	[cell:  0]     0.000000000000     0.000000000000     0.000000000000
	[cell:  1]     0.000000000000     0.000000000000    15.031000000000
	[cell:  2]     0.000000000000    15.031000000000     0.000000000000
	[cell:  3]     0.000000000000    15.031000000000    15.031000000000
	[cell:  4]    15.031000000000     0.000000000000     0.000000000000
	[cell:  5]    15.031000000000     0.000000000000    15.031000000000
	[cell:  6]    15.031000000000    15.031000000000     0.000000000000
	[cell:  7]    15.031000000000    15.031000000000    15.031000000000

Framework is simulated as 'flexible'
Number of framework atoms: 144
Number of framework atoms in the unit cell: 144
Framework Mass:  2884.046400000005 [g/mol]
Framework Density:  1410.222460676310 [kg/m^3]    0.7091079796874 [cm^3/g]
Helium void fraction:    0.00000000
Available pore volume:    0.00000000 [A^3]    0.00000000 [cm^3/g]
Conversion factor from molecule/unit cell -> kmol/m^3: 0.488974, kmol/m^3 accesible pore volume: inf

Number Of Frameworks (per system): 1
----------------------------------------------------------------------
Framework name: RHO
Citation:
	author name:        'L.B. McCusker and Ch. Baerlocher'
	title:              'The effect of dehydration upon the crystal structure of zeolite rho'
	journal abbrev.:    'J. Solid State Chem.'
	first page:         812
	last page:          822
	year:               1984
	special details:    'Proceedings of the 6th International Zeolite Conference, Reno 1983'
Space group: 229
	Identifier: 529
	short international Hermann-Mauguin symbol: I m -3 m
	long international Hermann-Mauguin symbol: I 4/m -3 2/m
	Hall symbol: -I 4 2 3
	Number of lattice translations: 2 [ (0,0,0) (0.5,0.5,0.5) ]
	acentric/centric: acentric
	chiral: yes
	enantiomorphic: no
	number of operators: 96
		'x,y,z'
		'-x,-y,z'
		'-x,y,-z'
		'x,-y,-z'
		'z,x,y'
		'z,-x,-y'
		'-z,-x,y'
		'-z,x,-y'
		'y,z,x'
		'-y,z,-x'
		'y,-z,-x'
		'-y,-z,x'
		'y,x,-z'
		'-y,-x,-z'
		'y,-x,z'
		'-y,x,z'
		'x,z,-y'
		'-x,z,y'
		'-x,-z,-y'
		'x,-z,y'
		'z,y,-x'
		'z,-y,x'
		'-z,y,x'
		'-z,-y,-x'
		'-x,-y,-z'
		'x,y,-z'
		'x,-y,z'
		'-x,y,z'
		'-z,-x,-y'
		'-z,x,y'
		'z,x,-y'
		'z,-x,y'
		'-y,-z,-x'
		'y,-z,x'
		'-y,z,x'
		'y,z,-x'
		'-y,-x,z'
		'y,x,z'
		'-y,x,-z'
		'y,-x,-z'
		'-x,-z,y'
		'x,-z,-y'
		'x,z,y'
		'-x,z,-y'
		'-z,-y,x'
		'-z,y,-x'
		'z,-y,-x'
		'z,y,x'
		'x+1/2,y+1/2,z+1/2'
		'-x+1/2,-y+1/2,z+1/2'
		'-x+1/2,y+1/2,-z+1/2'
		'x+1/2,-y+1/2,-z+1/2'
		'z+1/2,x+1/2,y+1/2'
		'z+1/2,-x+1/2,-y+1/2'
		'-z+1/2,-x+1/2,y+1/2'
		'-z+1/2,x+1/2,-y+1/2'
		'y+1/2,z+1/2,x+1/2'
		'-y+1/2,z+1/2,-x+1/2'
		'y+1/2,-z+1/2,-x+1/2'
		'-y+1/2,-z+1/2,x+1/2'
		'y+1/2,x+1/2,-z+1/2'
		'-y+1/2,-x+1/2,-z+1/2'
		'y+1/2,-x+1/2,z+1/2'
		'-y+1/2,x+1/2,z+1/2'
		'x+1/2,z+1/2,-y+1/2'
		'-x+1/2,z+1/2,y+1/2'
		'-x+1/2,-z+1/2,-y+1/2'
		'x+1/2,-z+1/2,y+1/2'
		'z+1/2,y+1/2,-x+1/2'
		'z+1/2,-y+1/2,x+1/2'
		'-z+1/2,y+1/2,x+1/2'
		'-z+1/2,-y+1/2,-x+1/2'
		'-x+1/2,-y+1/2,-z+1/2'
		'x+1/2,y+1/2,-z+1/2'
		'x+1/2,-y+1/2,z+1/2'
		'-x+1/2,y+1/2,z+1/2'
		'-z+1/2,-x+1/2,-y+1/2'
		'-z+1/2,x+1/2,y+1/2'
		'z+1/2,x+1/2,-y+1/2'
		'z+1/2,-x+1/2,y+1/2'
		'-y+1/2,-z+1/2,-x+1/2'
		'y+1/2,-z+1/2,x+1/2'
		'-y+1/2,z+1/2,x+1/2'
		'y+1/2,z+1/2,-x+1/2'
		'-y+1/2,-x+1/2,z+1/2'
		'y+1/2,x+1/2,z+1/2'
		'-y+1/2,x+1/2,-z+1/2'
		'y+1/2,-x+1/2,-z+1/2'
		'-x+1/2,-z+1/2,y+1/2'
		'x+1/2,-z+1/2,-y+1/2'
		'x+1/2,z+1/2,y+1/2'
		'-x+1/2,z+1/2,-y+1/2'
		'-z+1/2,-y+1/2,x+1/2'
		'-z+1/2,y+1/2,-x+1/2'
		'z+1/2,-y+1/2,-x+1/2'
		'z+1/2,y+1/2,x+1/2'
Framework is simulated as 'flexible'
Shift: 0.000000 0.000000 0.000000
Number of framework atoms: 144
Number of asymmetric atoms: 3
Number of free framework atoms: 144
Number of fixed framework atoms: 0
Number of framework atoms in the unit cell: 144
Framework Mass:  2884.046400000005 [g/mol]
Framework Density:  1410.222460676310 [kg/m^3]
Framework has net charge: -0.000000
         largest charge : 1.100000
         smallest charge: -0.550000


Current Atom Status
===========================================================================
Number of framework atoms        : 144
Number of cations molecules      : 0
Number of adsorbate molecules    : 0
Pseudo Atoms    0 [    UNIT]:    0 atoms
Pseudo Atoms    1 [       O]:   96 atoms
Pseudo Atoms    2 [      Oa]:    0 atoms
Pseudo Atoms    3 [      Si]:   48 atoms
Pseudo Atoms    4 [      Al]:    0 atoms
Pseudo Atoms    5 [      Ar]:    0 atoms
Pseudo Atoms    6 [ CH4_sp3]:    0 atoms
Pseudo Atoms    7 [ CH3_sp3]:    0 atoms
Pseudo Atoms    8 [ CH2_sp3]:    0 atoms
Pseudo Atoms    9 [  CH_sp3]:    0 atoms
Pseudo Atoms   10 [   C_sp3]:    0 atoms
Pseudo Atoms   11 [   C_co2]:    0 atoms
Pseudo Atoms   12 [   O_co2]:    0 atoms
Pseudo Atoms   13 [      Ow]:    0 atoms
Pseudo Atoms   14 [      Hw]:    0 atoms
Pseudo Atoms   15 [      Lw]:    0 atoms


Current (initial full energy) Energy Status
===========================================================================

Internal energy:
Host stretch energy:                                        91351.36917764
Host UreyBradley energy:                                      622.42741890
Host bend energy:                                          124176.84399634
Host inversion-bend energy:                                     0.00000000
Host torsion energy:                                            0.00000000
Host improper torsion energy:                                   0.00000000
Host out-of-plane energy:                                       0.00000000
Host stretch/stretch energy:                                    0.00000000
Host bend/bend energy:                                          0.00000000
Host stretch/bend energy:                                       0.00000000
Host stretch/torsion energy:                                    0.00000000
Host bend/torsion energy:                                  -91310.40449829

Adsorbate stretch energy:                                       0.00000000
Adsorbate UreyBradley energy:                                   0.00000000
Adsorbate bend energy:                                          0.00000000
Adsorbate inversion-bend energy:                                0.00000000
Adsorbate torsion energy:                                       0.00000000
Adsorbate improper torsion energy:                              0.00000000
Adsorbate out-of-plane energy:                                  0.00000000
Adsorbate stretch/stretch energy:                               0.00000000
Adsorbate bend/bend energy:                                     0.00000000
Adsorbate stretch/bend energy:                                  0.00000000
Adsorbate stretch/torsion energy:                               0.00000000
Adsorbate bend/torsion energy:                                  0.00000000
Adsorbate intra VDW energy:                                     0.00000000
Adsorbate intra charge-charge Coulomb energy:                   0.00000000
Adsorbate intra charge-bonddipole Coulomb energy:               0.00000000
Adsorbate intra bonddipole-bonddipole Coulomb energy:           0.00000000

Cation stretch energy:                                          0.00000000
Cation UreyBradley energy:                                      0.00000000
Cation bend energy:                                             0.00000000
Cation inversion-bend energy:                                   0.00000000
Cation torsion energy:                                          0.00000000
Cation improper torsion energy:                                 0.00000000
Cation out-of-plane energy:                                     0.00000000
Cation stretch/stretch energy:                                  0.00000000
Cation bend/bend energy:                                        0.00000000
Cation stretch/bend energy:                                     0.00000000
Cation stretch/torsion energy:                                  0.00000000
Cation bend/torsion energy:                                     0.00000000
Cation intra VDW energy:                                        0.00000000
Cation intra charge-charge Coulomb energy:                      0.00000000
Cation intra charge-bonddipole Coulomb energy:                  0.00000000
Cation intra bonddipole-bonddipole Coulomb energy:              0.00000000

Host/Host energy:                                      -6387595.60457026
	Host/Host VDW energy:                                    -63735.06977691
	Host/Host Coulomb energy:                              -6323860.53479334
	Host/Host charge-charge Real energy:                    -418986.36872022
	Host/Host charge-charge Fourier energy:                -5904874.16607312
	Host/Host charge-bonddipole Real energy:                      0.00000000
	Host/Host charge-bonddipole Fourier energy:                   0.00000000
	Host/Host bondipole-bonddipole Real energy:                   0.00000000
	Host/Host bondipole-bonddipole Fourier energy:                0.00000000

Host/Adsorbate energy:                                        0.00000000
	Host/Adsorbate VDW energy:                                    0.00000000
	Host/Adsorbate Coulomb energy:                                0.00000000
	Host/Adsorbate charge-charge Real energy:                     0.00000000
	Host/Adsorbate charge-charge Fourier energy:                  0.00000000
	Host/Adsorbate charge-bonddipole Real energy:                 0.00000000
	Host/Adsorbate charge-bonddipole Fourier energy:              0.00000000
	Host/Adsorbate bondipole-bonddipole Real energy:              0.00000000
	Host/Adsorbate bondipole-bonddipole Fourier energy:           0.00000000

Host/Cation energy:                                           0.00000000
	Host/Cation VDW energy:                                       0.00000000
	Host/Cation Coulomb energy:                                   0.00000000
	Host/Cation charge-charge Real energy:                        0.00000000
	Host/Cation charge-charge Fourier energy:                     0.00000000
	Host/Cation charge-bonddipole Real energy:                    0.00000000
	Host/Cation charge-bonddipole Fourier energy:                 0.00000000
	Host/Cation bondipole-bonddipole Real energy:                 0.00000000
	Host/Cation bondipole-bonddipole Fourier energy:              0.00000000

Adsorbate/Adsorbate energy:                                        0.00000000
	Adsorbate/Adsorbate VDW energy:                                    0.00000000
	Adsorbate/Adsorbate Coulomb energy:                                0.00000000
	Adsorbate/Adsorbate charge-charge Real energy:                     0.00000000
	Adsorbate/Adsorbate charge-charge Fourier energy:                  0.00000000
	Adsorbate/Adsorbate charge-bonddipole Real energy:                 0.00000000
	Adsorbate/Adsorbate charge-bonddipole Fourier energy:              0.00000000
	Adsorbate/Adsorbate bondipole-bonddipole Real energy:              0.00000000
	Adsorbate/Adsorbate bondipole-bonddipole Fourier energy:           0.00000000

Adsorbate/Cation energy:                                           0.00000000
	Adsorbate/Cation VDW energy:                                       0.00000000
	Adsorbate/Cation Coulomb energy:                                   0.00000000
	Adsorbate/Cation charge-charge Real energy:                        0.00000000
	Adsorbate/Cation charge-charge Fourier energy:                     0.00000000
	Adsorbate/Cation charge-bonddipole Real energy:                    0.00000000
	Adsorbate/Cation charge-bonddipole Fourier energy:                 0.00000000
	Adsorbate/Cation bondipole-bonddipole Real energy:                 0.00000000
	Adsorbate/Cation bondipole-bonddipole Fourier energy:              0.00000000

Cation/Cation energy:                                           0.00000000
	Cation/Cation VDW energy:                                       0.00000000
	Cation/Cation Coulomb energy:                                   0.00000000
	Cation/Cation charge-charge Real energy:                        0.00000000
	Cation/Cation charge-charge Fourier energy:                     0.00000000
	Cation/Cation charge-bonddipole Real energy:                    0.00000000
	Cation/Cation charge-bonddipole Fourier energy:                 0.00000000
	Cation/Cation bondipole-bonddipole Real energy:                 0.00000000
	Cation/Cation bondipole-bonddipole Fourier energy:              0.00000000

Polarization energy:
	Host polarization energy:                                     0.00000000
	Adsorbate polarization energy:                                0.00000000
	Cation polarization energy:                                   0.00000000
	Host back-polarization energy:                                     0.00000000
	Adsorbate back-polarization energy:                                0.00000000
	Cation back-polarization energy:                                   0.00000000

Tail-correction energy:                                       0.00000000

Distance constraints energy:                                  0.00000000
Angle constraints energy:                                     0.00000000
Dihedral constraints energy:                                  0.00000000
Inversion-bend constraints energy:                            0.00000000
Out-of-plane distance constraints energy:                     0.00000000
Exclusion constraints energy:                                 0.00000000

===================================================================
Total energy: -6262755.368475674652
	Total Van der Waals: -63735.069777
	Total Coulomb: -6323860.534793

	Total Polarization: 0.000000







+++++++++++++++++++++++++++++++++++++++++++++++++++++++++++++++++++++++++
Starting simulation
+++++++++++++++++++++++++++++++++++++++++++++++++++++++++++++++++++++++++

Total number of variables used in the minimization: 438
Number of cell-variables used in the minimization: 6
Total number of variables used for generalized coordinates in the minimization: 432
Total number of variables used for positions in the minimization: 432
Total number of variables used for orientation in the minimization: 0

Minimization initial volume:    3395.9682747910 [A^3]
Minimization initial energy: -6262755.3684756812 [K]
Minimization initial strain:       0.0000000000 [-]
Minimization initial box:      15.0310000000       0.0000000000       0.0000000000[-]
                                0.0000000000      15.0310000000       0.0000000000[-]
                                0.0000000000       0.0000000000      15.0310000000[-]

Beginning Baker minimization:
-----------------------------
Computing generalized Hessian matrix
Computing eigenvalues and vectors
Shifting parameter: -585752.5352333201 Lowest eigenvalue:    6238.9797068961
Iteration: 0 Energy: -6262755.3684756812 Volume:    3395.9682747910 RMS gradient: 12332  Max gradient: 3.13851e+06 Number of negative eigenvalues: 0 Number of zero eigenvalues: 3
      Box:      15.0310000000       0.0000000000       0.0000000000     Strain derivative: 3106269.3179231291   15546.9861774333   -5017.8749294081
                 0.0000000000      15.0310000000       0.0000000000                          15546.9861774333 3138510.1877927855    3408.8924082517
                 0.0000000000       0.0000000000      15.0310000000                          -5017.8749294081    3408.8924082517 3096505.8160122279
      Lengths:      15.0310000000      15.0310000000      15.0310000000, Angles:      90.0000000000      90.0000000000      90.0000000000

Computing generalized Hessian matrix
Computing eigenvalues and vectors
Shifting parameter:  -61553.3991869359 Lowest eigenvalue:  -15673.4533899216
Iteration: 1 Energy: -6648759.0264871335 Volume:    2843.1920228279 RMS gradient: 851.034  Max gradient: 206975 Number of negative eigenvalues: 20 Number of zero eigenvalues: 3
      Box:      14.1687776148      -0.0097424567       0.0030926936     Strain derivative:  202249.7515963560    1771.9327531597    -768.3153591227
                 0.0000000000      14.1597098063      -0.0039560980                           1771.9327531597  206975.2050922774     299.8097176854
                 0.0000000000       0.0000000000      14.1716185839                           -768.3153591227     299.8097176854  201079.7492161234
      Lengths:      14.1687776148      14.1597131579      14.1716194735, Angles:      90.0160030818      89.9874962567      90.0394218223

Computing generalized Hessian matrix
Computing eigenvalues and vectors
Shifting parameter:  -34131.5735596086 Lowest eigenvalue:  -16712.4581508132
Iteration: 2 Energy: -6678729.4237632547 Volume:    2866.2764690846 RMS gradient: 522.772  Max gradient: 126361 Number of negative eigenvalues: 24 Number of zero eigenvalues: 3
      Box:      14.2065758614      -0.0038190329       0.0015420223     Strain derivative:  123203.0970443425    1618.2841819966    -576.5619482930
                 0.0000000000      14.2002142968      -0.0032031723                           1618.2841819966  126360.9079787611      89.9471243752
                 0.0000000000       0.0000000000      14.2080267190                           -576.5619482930      89.9471243752  122368.7312817638
      Lengths:      14.2065758614      14.2002148104      14.2080271638, Angles:      90.0129188949      89.9937815878      90.0154092365

Computing generalized Hessian matrix
Computing eigenvalues and vectors
Shifting parameter:  -16798.7052079926 Lowest eigenvalue:  -16777.8888198296
Iteration: 3 Energy: -6697154.6861234168 Volume:    2891.2608255721 RMS gradient: 299.269  Max gradient: 72894.6 Number of negative eigenvalues: 24 Number of zero eigenvalues: 3
      Box:      14.2472439738      -0.0004614397       0.0005255413     Strain derivative:   70860.1796493084    1114.3111540141    -357.8772666007
                 0.0000000000      14.2431464273      -0.0019528113                           1114.3111540141   72894.6005756420      31.2876425069
                 0.0000000000       0.0000000000      14.2478873073                           -357.8772666007      31.2876425069   70522.1227069284
      Lengths:      14.2472439738      14.2431464348      14.2478874508, Angles:      90.0078530113      89.9978866131      90.0018562294

Computing generalized Hessian matrix
Computing eigenvalues and vectors
Shifting parameter:  -19211.7086968779 Lowest eigenvalue:  -15907.0057254952
Iteration: 4 Energy: -6698373.7084038956 Volume:    2891.6647452406 RMS gradient: 313.732  Max gradient: 76795.5 Number of negative eigenvalues: 24 Number of zero eigenvalues: 3
      Box:      14.2482206801      -0.0001207559       0.0005726002     Strain derivative:   74908.3942030629    1116.9262667456    -344.2563812768
                 0.0000000000      14.2440876880      -0.0022394637                           1116.9262667456   76795.4876839105       4.4942502171
                 0.0000000000       0.0000000000      14.2479593903                           -344.2563812768       4.4942502171   74315.7849301720
      Lengths:      14.2482206801      14.2440876885      14.2479595778, Angles:      90.0090056471      89.9976973842      90.0004857318

Computing generalized Hessian matrix
Computing eigenvalues and vectors
Shifting parameter:  -20457.5908498079 Lowest eigenvalue:  -14043.1708565678
Iteration: 5 Energy: -6703204.3804007946 Volume:    2893.9712128088 RMS gradient: 280.031  Max gradient: 68712.3 Number of negative eigenvalues: 24 Number of zero eigenvalues: 3
      Box:      14.2522424559       0.0004105485       0.0004600687     Strain derivative:   67224.2911093017     967.7327464690    -287.4042985756
                 0.0000000000      14.2481713372      -0.0021014104                            967.7327464690   68712.3257328003      -7.3137376876
                 0.0000000000       0.0000000000      14.2512144695                           -287.4042985756      -7.3137376876   66542.4182376580
      Lengths:      14.2522424559      14.2481713431      14.2512146319, Angles:      90.0084484859      89.9981503336      89.9983490726

Computing generalized Hessian matrix
Computing eigenvalues and vectors
Shifting parameter:  -20896.8925576343 Lowest eigenvalue:  -11407.2354582720
Iteration: 6 Energy: -6708703.8809632054 Volume:    2894.1250856196 RMS gradient: 243.481  Max gradient: 59696.1 Number of negative eigenvalues: 24 Number of zero eigenvalues: 3
      Box:      14.2524383935       0.0008178336       0.0003310577     Strain derivative:   58536.3690322433     812.9329506132    -235.8878457942
                 0.0000000000      14.2487150171      -0.0018261962                            812.9329506132   59696.1205379934      -1.2824364522
                 0.0000000000       0.0000000000      14.2512324806                           -235.8878457943      -1.2824364522   57840.6371140781
      Lengths:      14.2524383935      14.2487150406      14.2512326014, Angles:      90.0073419789      89.9986690126      89.9967113939

Computing generalized Hessian matrix
Computing eigenvalues and vectors
Shifting parameter:  -20487.3877730186 Lowest eigenvalue:   -8222.8082710982
Iteration: 7 Energy: -6714714.6051063724 Volume:    2892.3680779740 RMS gradient: 205.764  Max gradient: 50215.2 Number of negative eigenvalues: 19 Number of zero eigenvalues: 3
      Box:      14.2492636493       0.0011178498       0.0001984067     Strain derivative:   49273.8581877753     661.2524277559    -192.1106727375
                 0.0000000000      14.2461157801      -0.0015026890                            661.2524277560   50215.2314351707      14.0892388266
                 0.0000000000       0.0000000000      14.2483530608                           -192.1106727375      14.0892388265   48697.5175863685
      Lengths:      14.2492636493      14.2461158239      14.2483531414, Angles:      90.0060425822      89.9992021628      89.9955041726

Computing generalized Hessian matrix
Computing eigenvalues and vectors
Shifting parameter:  -19095.2356305336 Lowest eigenvalue:   -4878.7557989694
Iteration: 8 Energy: -6721013.7585524982 Volume:    2889.0434301580 RMS gradient: 168.594  Max gradient: 40753.2 Number of negative eigenvalues: 15 Number of zero eigenvalues: 3
      Box:      14.2433248993       0.0013103624       0.0000878655     Strain derivative:   39905.3753530371     522.4155551301    -148.9758880982
                 0.0000000000      14.2409413300      -0.0011946183                            522.4155551301   40753.1602446674      25.3918041576
                 0.0000000000       0.0000000000      14.2430825819                           -148.9758880982      25.3918041576   39592.8000728214
      Lengths:      14.2433248993      14.2409413903      14.2430826323, Angles:      90.0048055693      89.9996465428      89.9947280005

Computing generalized Hessian matrix
Computing eigenvalues and vectors
Shifting parameter:  -16587.5102997499 Lowest eigenvalue:   -2681.1180948275
Iteration: 9 Energy: -6727297.8767609922 Volume:    2884.6895781213 RMS gradient: 133.586  Max gradient: 31798.8 Number of negative eigenvalues: 12 Number of zero eigenvalues: 3
      Box:      14.2355855109       0.0013725188       0.0000139582     Strain derivative:   30952.9477261509     395.9345563851    -112.9541710017
                 0.0000000000      14.2340709514      -0.0009161074                            395.9345563851   31798.8139591585      33.0980606110
                 0.0000000000       0.0000000000      14.2362178376                           -112.9541710018      33.0980606110   30986.1293758551
      Lengths:      14.2355855109      14.2340710176      14.2362178671, Angles:      90.0036870053      89.9999438232      89.9944752605

Computing generalized Hessian matrix
Computing eigenvalues and vectors
Shifting parameter:  -13226.7846559004 Lowest eigenvalue:   -1894.7928724304
Iteration: 10 Energy: -6733162.0480396813 Volume:    2880.2027224240 RMS gradient: 102.588  Max gradient: 23947.4 Number of negative eigenvalues: 7 Number of zero eigenvalues: 3
      Box:      14.2276670630       0.0012916740      -0.0000236063     Strain derivative:   23092.1234033565     284.7914523548     -78.1827134651
                 0.0000000000      14.2269558218      -0.0006666121                            284.7914523548   23947.4312519093      37.4123821214
                 0.0000000000       0.0000000000      14.2290983043                            -78.1827134651      37.4123821215   23428.5964923064
      Lengths:      14.2276670630      14.2269558804      14.2290983200, Angles:      90.0026842307      90.0000950546      89.9947980811

Computing generalized Hessian matrix
Computing eigenvalues and vectors
Shifting parameter:   -9783.8476071701 Lowest eigenvalue:   -1197.3345336594
Iteration: 11 Energy: -6738149.7157886354 Volume:    2877.0510530583 RMS gradient: 79.2508  Max gradient: 18281 Number of negative eigenvalues: 8 Number of zero eigenvalues: 3
      Box:      14.2222214886       0.0011133080      -0.0000641502     Strain derivative:   17511.0539376463     184.7736153071     -48.9477283601
                 0.0000000000      14.2219584982      -0.0004700734                            184.7736153071   18281.0491447678      40.1566812333
                 0.0000000000       0.0000000000      14.2239665956                            -48.9477283601      40.1566812333   17958.2714612259
      Lengths:      14.2222214886      14.2219585418      14.2239666035, Angles:      90.0018935301      90.0002584042      89.9955148337

Computing generalized Hessian matrix
Computing eigenvalues and vectors
Shifting parameter:   -6102.4798369288 Lowest eigenvalue:   -1565.7761638228
Iteration: 12 Energy: -6742034.9884396484 Volume:    2875.9738980105 RMS gradient: 65.1929  Max gradient: 15227.9 Number of negative eigenvalues: 6 Number of zero eigenvalues: 3
      Box:      14.2207168309       0.0009737485      -0.0001742777     Strain derivative:   14704.2795199220     101.8716141976     -28.7293049966
                 0.0000000000      14.2201994939      -0.0003739078                            101.8716141976   15227.9100370159      38.0194062988
                 0.0000000000       0.0000000000      14.2219046418                            -28.7293049966      38.0194062988   14992.8691582894
      Lengths:      14.2207168309      14.2201995272      14.2219046478, Angles:      90.0015064104      90.0007021123      89.9960765894

Computing generalized Hessian matrix
Computing eigenvalues and vectors
Shifting parameter:   -2159.4205668601 Lowest eigenvalue:   -2010.0035855741
Iteration: 13 Energy: -6744836.9956095172 Volume:    2875.2298533162 RMS gradient: 49.5734  Max gradient: 11822.8 Number of negative eigenvalues: 8 Number of zero eigenvalues: 3
      Box:      14.2203203755       0.0009737280      -0.0004499128     Strain derivative:   11672.3602238312      36.5555806667     -15.6711731934
                 0.0000000000      14.2187339841      -0.0004096590                             36.5555806667   11822.7995980725      28.7455584278
                 0.0000000000       0.0000000000      14.2200871808                            -15.6711731934      28.7455584278   11644.7805717549
      Lengths:      14.2203203755      14.2187340174      14.2200871938, Angles:      90.0016507283      90.0018127952      89.9960762679

Computing generalized Hessian matrix
Computing eigenvalues and vectors
Shifting parameter:   -2626.7422316052 Lowest eigenvalue:   -2579.1229162038
Iteration: 14 Energy: -6746101.8431549659 Volume:    2873.4557185247 RMS gradient: 22.6258  Max gradient: 5610.72 Number of negative eigenvalues: 8 Number of zero eigenvalues: 3
      Box:      14.2192576178       0.0077753309      -0.0085399856     Strain derivative:    5610.7167774913    -173.4688214729     172.6394656260
                 0.0000000000      14.2148115385      -0.0062547514                           -173.4688214729    5199.6461547244     127.8050875344
                 0.0000000000       0.0000000000      14.2162967407                            172.6394656260     127.8050875343    5189.0542256664
      Lengths:      14.2192576178      14.2148136650      14.2163006817, Angles:      90.0252272703      90.0344185996      89.9686599012

Computing generalized Hessian matrix
Computing eigenvalues and vectors
Shifting parameter:   -2850.4306840107 Lowest eigenvalue:   -2353.9881159178
Iteration: 15 Energy: -6746355.1989582786 Volume:    2872.6092427580 RMS gradient: 34.9951  Max gradient: 8590.67 Number of negative eigenvalues: 8 Number of zero eigenvalues: 3
      Box:      14.2179261218       0.0274329443      -0.0289687858     Strain derivative:    8590.6676579451    1514.3078763363   -1569.8325196075
                 0.0000000000      14.2134331423      -0.0277249895                           1514.3078763363    8225.0584134823   -1746.8504767586
                 0.0000000000       0.0000000000      14.2148181869                          -1569.8325196075   -1746.8504767586    8224.4624273172
      Lengths:      14.2179261218      14.2134596160      14.2148747427, Angles:      90.1119761149      90.1167643290      89.8894151780

Computing generalized Hessian matrix
Computing eigenvalues and vectors
Shifting parameter:   -2970.8417118194 Lowest eigenvalue:   -2105.6659437280
Iteration: 16 Energy: -6746870.5793938525 Volume:    2869.8798136714 RMS gradient: 41.5593  Max gradient: 9702.21 Number of negative eigenvalues: 8 Number of zero eigenvalues: 3
      Box:      14.2138326500       0.0479271967      -0.0495472085     Strain derivative:    9702.2091357466    3076.3851671417   -2935.5831584220
                 0.0000000000      14.2085759127      -0.0477716979                           3076.3851671417    9156.0324370870   -3188.0073356001
                 0.0000000000       0.0000000000      14.2102578917                          -2935.5831584220   -3188.0073356001    9607.7301464915
      Lengths:      14.2138326500      14.2086567445      14.2104245683, Angles:      90.1932864145      90.1997724750      89.8067353340

Computing generalized Hessian matrix
Computing eigenvalues and vectors
Shifting parameter:   -4928.2280204462 Lowest eigenvalue:   -2352.0682547109
Iteration: 17 Energy: -6745286.8025092464 Volume:    2865.5325354829 RMS gradient: 112.146  Max gradient: 14175.7 Number of negative eigenvalues: 6 Number of zero eigenvalues: 3
      Box:      14.2067329912       0.0727223744      -0.0642329958     Strain derivative:   10612.1715995700    1186.9755546412   -1932.8909672172
                 0.0000000000      14.1985188974      -0.0615721780                           1186.9755546412    9492.6153598824   -2242.6042554286
                 0.0000000000       0.0000000000      14.2058780399                          -1932.8909672172   -2242.6042554286    7019.2130122907
      Lengths:      14.2067329912      14.1987051320      14.2061566898, Angles:      90.2496551656      90.2590631786      89.7065434273

Computing generalized Hessian matrix
Computing eigenvalues and vectors
Shifting parameter:   -3828.9590768148 Lowest eigenvalue:   -3596.3972000813
Iteration: 18 Energy: -6747908.6820600359 Volume:    2861.1445098765 RMS gradient: 29.7714  Max gradient: 5658.93 Number of negative eigenvalues: 6 Number of zero eigenvalues: 3
      Box:      14.2052652869       0.0655195848      -0.0654036559     Strain derivative:    5493.7914900159    1184.7919959962   -1428.2602388127
                 0.0000000000      14.1889185930      -0.0612848642                           1184.7919959962    3899.2136782051   -1350.6238714303
                 0.0000000000       0.0000000000      14.1951879743                          -1428.2602388126   -1350.6238714303    5658.9312472406
      Lengths:      14.2052652869      14.1890698658      14.1954709362, Angles:      90.2485751641      90.2639832606      89.7354295198

Computing generalized Hessian matrix
Computing eigenvalues and vectors
Shifting parameter:   -5637.9453350370 Lowest eigenvalue:   -4526.5142949228
Iteration: 19 Energy: -6748693.4494527793 Volume:    2856.6471049891 RMS gradient: 35.5234  Max gradient: 10769.3 Number of negative eigenvalues: 6 Number of zero eigenvalues: 3
      Box:      14.2244762593       0.0731968540      -0.0760389463     Strain derivative:   10769.2921240956    2031.7342084122   -2835.3569327691
                 0.0000000000      14.1617947109      -0.0623973291                           2031.7342084122    2574.8473594355   -1482.6354244789
                 0.0000000000       0.0000000000      14.1808418591                          -2835.3569327691   -1482.6354244789    5367.1958861078
      Lengths:      14.2244762593      14.1619838727      14.1811829966, Angles:      90.2536872606      90.3072191919      89.7038628542

Computing generalized Hessian matrix
Computing eigenvalues and vectors
Shifting parameter:   -6046.1436894244 Lowest eigenvalue:   -4334.6211621591
Iteration: 20 Energy: -6749880.0819134889 Volume:    2850.6121326968 RMS gradient: 41.0189  Max gradient: 13687.9 Number of negative eigenvalues: 6 Number of zero eigenvalues: 3
      Box:      14.2388138434       0.0809882544      -0.0840826086     Strain derivative:   13687.8579154580    2964.1469502344   -3818.1475930508
                 0.0000000000      14.1380615938      -0.0645595182                           2964.1469502344    1442.5413944230   -1677.7755981255
                 0.0000000000       0.0000000000      14.1603649926                          -3818.1475930508   -1677.7755981254    4117.0911633744
      Lengths:      14.2388138434      14.1382935578      14.1607617924, Angles:      90.2631593470      90.3402081740      89.6717913286

Computing generalized Hessian matrix
Computing eigenvalues and vectors
Shifting parameter:   -4067.3982411264 Lowest eigenvalue:   -3366.5833299631
Iteration: 21 Energy: -6751285.8203088660 Volume:    2843.2266296008 RMS gradient: 45.9406  Max gradient: 13997.1 Number of negative eigenvalues: 2 Number of zero eigenvalues: 3
      Box:      14.2500414734       0.0884139171      -0.0888108709     Strain derivative:   13997.1114296069    3837.8557728139   -3627.8186822180
                 0.0000000000      14.1199691177      -0.0673953597                           3837.8557728139     825.9260141389   -1867.8890929837
                 0.0000000000       0.0000000000      14.1306325389                          -3627.8186822179   -1867.8890929838     870.4756394435
      Lengths:      14.2500414734      14.1202459223      14.1310723392, Angles:      90.2755113306      90.3600945104      89.6412401434

Computing generalized Hessian matrix
Computing eigenvalues and vectors
Shifting parameter:  -17305.5086058540 Lowest eigenvalue:   -4061.9731065481
Iteration: 22 Energy: -6747595.6007533036 Volume:    2834.0988134596 RMS gradient: 131.432  Max gradient: 18034.7 Number of negative eigenvalues: 2 Number of zero eigenvalues: 3
      Box:      14.2581235775       0.0936307521      -0.0918152806     Strain derivative:    6622.4815748513     736.2174594309   -1698.9474916008
                 0.0000000000      14.1026538909      -0.0726425054                            736.2174594309   -1736.2975532547   -2015.1709338157
                 0.0000000000       0.0000000000      14.0945679022                          -1698.9474916007   -2015.1709338157     175.8413441927
      Lengths:      14.2581235775      14.1029647055      14.0950541442, Angles:      90.2977613168      90.3732277454      89.6196057742

Computing generalized Hessian matrix
Computing eigenvalues and vectors
Shifting parameter:   -4325.5427664667 Lowest eigenvalue:   -4055.1851178709
Iteration: 23 Energy: -6750514.8941990202 Volume:    2839.1109076321 RMS gradient: 70.0426  Max gradient: 13521.9 Number of negative eigenvalues: 2 Number of zero eigenvalues: 3
      Box:      14.2703746526       0.1116418325      -0.0986403791     Strain derivative:   13521.9034562278    8573.3444889877   -3957.7390165816
                 0.0000000000      14.1098151207      -0.0717150428                           8573.3444889877    5891.8123672499    -816.5710708020
                 0.0000000000       0.0000000000      14.1002125632                          -3957.7390165816    -816.5710708020    4111.8546913792
      Lengths:      14.2703746526      14.1102567885      14.1007399558, Angles:      90.2945643733      90.4008104204      89.5466650497

Computing generalized Hessian matrix
Computing eigenvalues and vectors
Shifting parameter:   -4650.4082879931 Lowest eigenvalue:   -4302.5242142453
Iteration: 24 Energy: -6751490.8523216937 Volume:    2834.6495655580 RMS gradient: 63.9581  Max gradient: 10315.8 Number of negative eigenvalues: 2 Number of zero eigenvalues: 3
      Box:      14.2349597030       0.1100817402      -0.0992914709     Strain derivative:    9455.5253155041    6767.3557993438   -2688.0179506028
                 0.0000000000      14.1142130013      -0.0826433857                           6767.3557993438    9303.8896908375   -2849.0914349342
                 0.0000000000       0.0000000000      14.1086827346                          -2688.0179506028   -2849.0914349342    7030.9183449261
      Lengths:      14.2349597030      14.1146422780      14.1092741568, Angles:      90.3387396135      90.4032120376      89.5531390076

Computing generalized Hessian matrix
Computing eigenvalues and vectors
Shifting parameter:   -3670.3543654247 Lowest eigenvalue:    -232.0655371534
Iteration: 25 Energy: -6752216.3557442641 Volume:    2831.0367775135 RMS gradient: 66.3409  Max gradient: 12533.7 Number of negative eigenvalues: 1 Number of zero eigenvalues: 3
      Box:      14.1965763405       0.1100207088      -0.1001794584     Strain derivative:    7164.2151585587    5598.7787264770   -2470.5724573524
                 0.0000000000      14.1252557951      -0.0921138119                           5598.7787264770   12533.7225662289   -4505.8049583236
                 0.0000000000       0.0000000000      14.1177526271                          -2470.5724573524   -4505.8049583237   11253.8433495164
      Lengths:      14.1965763405      14.1256842607      14.1184085548, Angles:      90.3769771214      90.4065549104      89.5537358832

Computing generalized Hessian matrix
Computing eigenvalues and vectors
Shifting parameter:   -8798.8774899697 Lowest eigenvalue:    2375.2361920381
Iteration: 26 Energy: -6750778.7144180154 Volume:    2824.7669807673 RMS gradient: 108.974  Max gradient: 18512.8 Number of negative eigenvalues: 0 Number of zero eigenvalues: 3
      Box:      14.1477254730       0.1063509048      -0.0995221771     Strain derivative:    5815.2001248681    3327.4699427786   -1522.1954977924
                 0.0000000000      14.1340909268      -0.0987970218                           3327.4699427787    7837.3532189600   -1570.9669897276
                 0.0000000000       0.0000000000      14.1262901773                          -1522.1954977924   -1570.9669897276    7041.7752564520
      Lengths:      14.1477254730      14.1344910358      14.1269862210, Angles:      90.4037268681      90.4036422060      89.5688903494

Computing generalized Hessian matrix
Computing eigenvalues and vectors
Shifting parameter:   -4526.3917809579 Lowest eigenvalue:    1511.5939165788
Iteration: 27 Energy: -6751785.4567131354 Volume:    2828.1903386396 RMS gradient: 74.1862  Max gradient: 14282.8 Number of negative eigenvalues: 0 Number of zero eigenvalues: 3
      Box:      14.1510676013       0.0962568431      -0.0950789994     Strain derivative:    2796.2043304890    -171.2563821530    -597.4584754259
                 0.0000000000      14.1412603750      -0.1083871513                           -171.2563821530    8283.1800654125   -7054.8624522878
                 0.0000000000       0.0000000000      14.1329007778                           -597.4584754259   -7054.8624522878   11562.7478469180
      Lengths:      14.1510676013      14.1415879721      14.1336361983, Angles:      90.4420040545      90.3854398401      89.6100046572

Computing generalized Hessian matrix
Computing eigenvalues and vectors
Shifting parameter:  -77568.8310900003 Lowest eigenvalue:  -75556.9219243779
Iteration: 28 Energy: -6750969.5848960001 Volume:    2823.2104996635 RMS gradient: 78.6121  Max gradient: 17713.8 Number of negative eigenvalues: 2 Number of zero eigenvalues: 3
      Box:      14.1205780562       0.0980104317      -0.0958316786     Strain derivative:    5755.1871528121     956.5761158906    -165.9537372860
                 0.0000000000      14.1423681561      -0.1053404817                            956.5761158906    3011.6491007547   -1995.3138468039
                 0.0000000000       0.0000000000      14.1373707027                           -165.9537372860   -1995.3138468039    2807.6777770293
      Lengths:      14.1205780562      14.1427077714      14.1380879441, Angles:      90.4295862693      90.3883688369      89.6029311270

Computing generalized Hessian matrix
Computing eigenvalues and vectors
Shifting parameter: -372512.3549352646 Lowest eigenvalue: -371976.2151602431
Iteration: 29 Energy: -6747947.0030357158 Volume:    2824.6071422439 RMS gradient: 108.516  Max gradient: 22485.5 Number of negative eigenvalues: 1 Number of zero eigenvalues: 3
      Box:      14.1151286541       0.0977488868      -0.0960888861     Strain derivative:   12029.0951664712    1519.9534703235    -644.4021792574
                 0.0000000000      14.1506618741      -0.1358782389                           1519.9534703235   13087.8849229774  -12111.7477060805
                 0.0000000000       0.0000000000      14.1415319233                           -644.4021792574  -12111.7477060805    3593.7131880940
      Lengths:      14.1151286541      14.1509994813      14.1425111316, Angles:      90.5531701431      90.3892894224      89.6042227822

Computing generalized Hessian matrix
Computing eigenvalues and vectors
Shifting parameter:  -14190.4258513438 Lowest eigenvalue:    2422.3586567021
Iteration: 30 Energy: -6743958.5921581518 Volume:    2824.9604290835 RMS gradient: 192.899  Max gradient: 27459 Number of negative eigenvalues: 0 Number of zero eigenvalues: 3
      Box:      14.1038924508       0.0983019430      -0.0968335421     Strain derivative:   20145.9169754642    2262.9885138296   -1454.3982860337
                 0.0000000000      14.1533150144      -0.1970947297                           2262.9885138295   15162.0508773390  -26074.6096277009
                 0.0000000000       0.0000000000      14.1519148945                          -1454.3982860337  -26074.6096277009   16071.9367092208
      Lengths:      14.1038924508      14.1536563887      14.1536185567, Angles:      90.8005957129      90.3919984518      89.6020581835

Computing generalized Hessian matrix
Computing eigenvalues and vectors
Shifting parameter:   -6728.1897448984 Lowest eigenvalue:   -5776.5211383956
Iteration: 31 Energy: -6752785.5290497625 Volume:    2828.5428804399 RMS gradient: 46.4626  Max gradient: 14985.6 Number of negative eigenvalues: 1 Number of zero eigenvalues: 3
      Box:      14.1340123799       0.0941095510      -0.0943129816     Strain derivative:   14985.5710439297    -380.2924648146     278.0842674353
                 0.0000000000      14.1478780188      -0.1128523340                           -380.2924648146    4368.2312977142    -483.3798049392
                 0.0000000000       0.0000000000      14.1450990489                            278.0842674353    -483.3798049392    5712.2590346462
      Lengths:      14.1340123799      14.1481910166      14.1458636248, Angles:      90.4596278706      90.3820039538      89.6188827364

Computing generalized Hessian matrix
Computing eigenvalues and vectors
Shifting parameter:   -6098.8509195966 Lowest eigenvalue:    2388.7375986356
Iteration: 32 Energy: -6751287.2488985732 Volume:    2824.7080287373 RMS gradient: 103.661  Max gradient: 23818 Number of negative eigenvalues: 0 Number of zero eigenvalues: 3
      Box:      14.1022609685       0.0956344913      -0.0958339603     Strain derivative:   17158.9732650962    -337.5405578558     248.9951900804
                 0.0000000000      14.1540234659      -0.1138853533                           -337.5405578559    5653.1687198482    1079.8128306298
                 0.0000000000       0.0000000000      14.1515791862                            248.9951900804    1079.8128306298    6664.6499733550
      Lengths:      14.1022609685      14.1543465490      14.1523619048, Angles:      90.4636803538      90.3879863629      89.6128754940

Computing generalized Hessian matrix
Computing eigenvalues and vectors
Shifting parameter:   -2184.2840805638 Lowest eigenvalue:     312.1704014424
Iteration: 33 Energy: -6752881.0013684891 Volume:    2828.0001710321 RMS gradient: 37.9446  Max gradient: 9998.19 Number of negative eigenvalues: 0 Number of zero eigenvalues: 3
      Box:      14.1314735643       0.0934473596      -0.0935939555     Strain derivative:    9998.1887036525      58.4063274166      -6.4893798413
                 0.0000000000      14.1473199327      -0.0957720406                             58.4063274166    5740.4835590905    -309.1078375488
                 0.0000000000       0.0000000000      14.1454838120                             -6.4893798413    -309.1078375488    5054.8447782864
      Lengths:      14.1314735643      14.1476285534      14.1461176436, Angles:      90.3904023227      90.3790847705      89.6215494190

Computing generalized Hessian matrix
Computing eigenvalues and vectors
Shifting parameter:  -28392.6958718830 Lowest eigenvalue:  -19291.1407707283
Iteration: 34 Energy: -6751677.2710183440 Volume:    2823.3232377900 RMS gradient: 77.7954  Max gradient: 20132.6 Number of negative eigenvalues: 1 Number of zero eigenvalues: 3
      Box:      14.1003304962       0.0952494543      -0.0953608410     Strain derivative:    9342.9386865240     105.1198354868     -79.8200861167
                 0.0000000000      14.1516065417      -0.1024186991                            105.1198354868    3929.8132301829    -341.8770775322
                 0.0000000000       0.0000000000      14.1489940899                            -79.8200861167    -341.8770775322    3398.0001034582
      Lengths:      14.1003304962      14.1519270832      14.1496861108, Angles:      90.4173133129      90.3861439074      89.6143682128

Computing generalized Hessian matrix
Computing eigenvalues and vectors
Shifting parameter:   -5041.4576051386 Lowest eigenvalue:    2410.5143742274
Iteration: 35 Energy: -6750272.2525530560 Volume:    2826.3100154188 RMS gradient: 93.6196  Max gradient: 21262.6 Number of negative eigenvalues: 0 Number of zero eigenvalues: 3
      Box:      14.1030963417       0.0949575028      -0.0945652453     Strain derivative:   15362.2661635129     385.8798393041    -464.8036228043
                 0.0000000000      14.1563369879      -0.1204479091                            385.8798393041    4412.9608617873   -7794.8241096151
                 0.0000000000       0.0000000000      14.1564523821                           -464.8036228042   -7794.8241096151   12055.7906920965
      Lengths:      14.1030963417      14.1566554610      14.1572806121, Angles:      90.4900255582      90.3827168428      89.6156786498

Computing generalized Hessian matrix
Computing eigenvalues and vectors
Shifting parameter:  -12986.2749512183 Lowest eigenvalue:  -11917.1203011692
Iteration: 36 Energy: -6753122.1442548111 Volume:    2825.8211516875 RMS gradient: 37.4274  Max gradient: 10922.2 Number of negative eigenvalues: 1 Number of zero eigenvalues: 3
      Box:      14.1287236836       0.0938882345      -0.0926485186     Strain derivative:   10922.2172932840     -59.7442721686     459.7469046143
                 0.0000000000      14.1474991928      -0.0986695611                            -59.7442721686   -2939.9943224065      28.1316728523
                 0.0000000000       0.0000000000      14.1371563807                            459.7469046143      28.1316728523   -1834.6069927693
      Lengths:      14.1287236836      14.1478107285      14.1378042836, Angles:      90.4023608737      90.3754760627      89.6197687986

Computing generalized Hessian matrix
Computing eigenvalues and vectors
Shifting parameter:  -11423.8707506265 Lowest eigenvalue:    2356.4207469786
Iteration: 37 Energy: -6751157.1449753381 Volume:    2822.6509062539 RMS gradient: 85.8117  Max gradient: 18208.1 Number of negative eigenvalues: 0 Number of zero eigenvalues: 3
      Box:      14.1063748374       0.0944214505      -0.0948860521     Strain derivative:   18208.0592395267    -224.0684204446     389.6841283650
                 0.0000000000      14.1452859743      -0.0957061984                           -224.0684204445   -2432.8861356178    1744.2611545236
                 0.0000000000       0.0000000000      14.1458815731                            389.6841283650    1744.2611545237     190.5629098996
      Lengths:      14.1063748374      14.1456011080      14.1465235489, Angles:      90.3901856640      90.3843072163      89.6175496014

Computing generalized Hessian matrix
Computing eigenvalues and vectors
Shifting parameter:   -9480.9939958388 Lowest eigenvalue:    2327.3250667080
Iteration: 38 Energy: -6749955.8738877550 Volume:    2818.0187161443 RMS gradient: 57.1198  Max gradient: 11084.8 Number of negative eigenvalues: 0 Number of zero eigenvalues: 3
      Box:      14.0791656064       0.0946954153      -0.0973391971     Strain derivative:    6754.7881378253      33.0806663143    -238.7453359733
                 0.0000000000      14.1483798428      -0.0951646711                             33.0806663142   -2753.5250323249   -2879.0921540005
                 0.0000000000       0.0000000000      14.1468661663                           -238.7453359733   -2879.0921540005    5162.1705403972
      Lengths:      14.0791656064      14.1486967385      14.1475211101, Angles:      90.3880383564      90.3942152927      89.6165238224

Computing generalized Hessian matrix
Computing eigenvalues and vectors
Shifting parameter:   -9829.4647471366 Lowest eigenvalue:    2365.0692014686
Iteration: 39 Energy: -6749468.8203028589 Volume:    2819.7139153101 RMS gradient: 76.8721  Max gradient: 22148.3 Number of negative eigenvalues: 0 Number of zero eigenvalues: 3
      Box:      14.0706628702       0.0947656597      -0.0968708779     Strain derivative:   15162.8128506474     211.8133002335     424.8244531901
                 0.0000000000      14.1535324930      -0.1132883090                            211.8133002335   -2807.2841253459    1206.6205840188
                 0.0000000000       0.0000000000      14.1587738062                            424.8244531901    1206.6205840189    2402.5802790470
      Lengths:      14.0706628702      14.1538497434      14.1595583937, Angles:      90.4610333293      90.3919850893      89.6163790765

Computing generalized Hessian matrix
Computing eigenvalues and vectors
Shifting parameter: -208906.2095568543 Lowest eigenvalue: -208646.5665373937
Iteration: 40 Energy: -6750322.5024922760 Volume:    2819.0091541253 RMS gradient: 66.3422  Max gradient: 20488.2 Number of negative eigenvalues: 1 Number of zero eigenvalues: 3
      Box:      14.0771552874       0.0954410089      -0.0965580571     Strain derivative:   20488.1904548284     182.7665912995     542.0901845779
                 0.0000000000      14.1604559593      -0.0893072590                            182.7665912995   -2550.8160679805    3998.8593370012
[...]
	Block[ 2]            0.00000 [K]
	Block[ 3]            0.00000 [K]
	Block[ 4]            0.00000 [K]
	------------------------------------------------------------------------------
	Average              0.00000 [K] +/-            0.00000 [K]

Average Adsorbate Bend-Bend cross term energy:
==============================================
	Block[ 0]            0.00000 [K]
	Block[ 1]            0.00000 [K]
	Block[ 2]            0.00000 [K]
	Block[ 3]            0.00000 [K]
	Block[ 4]            0.00000 [K]
	------------------------------------------------------------------------------
	Average              0.00000 [K] +/-            0.00000 [K]

Average Adsorbate Bond-Bend cross term energy:
=================================================
	Block[ 0]            0.00000 [K]
	Block[ 1]            0.00000 [K]
	Block[ 2]            0.00000 [K]
	Block[ 3]            0.00000 [K]
	Block[ 4]            0.00000 [K]
	------------------------------------------------------------------------------
	Average              0.00000 [K] +/-            0.00000 [K]

Average Adsorbate Bond-Torsion cross term energy:
=================================================
	Block[ 0]            0.00000 [K]
	Block[ 1]            0.00000 [K]
	Block[ 2]            0.00000 [K]
	Block[ 3]            0.00000 [K]
	Block[ 4]            0.00000 [K]
	------------------------------------------------------------------------------
	Average              0.00000 [K] +/-            0.00000 [K]

Average Adsorbate Bend-Torsion cross term energy:
=================================================
	Block[ 0]            0.00000 [K]
	Block[ 1]            0.00000 [K]
	Block[ 2]            0.00000 [K]
	Block[ 3]            0.00000 [K]
	Block[ 4]            0.00000 [K]
	------------------------------------------------------------------------------
	Average              0.00000 [K] +/-            0.00000 [K]

Average Adsorbate Intra Van der Waals energy:
=============================================
	Block[ 0]            0.00000 [K]
	Block[ 1]            0.00000 [K]
	Block[ 2]            0.00000 [K]
	Block[ 3]            0.00000 [K]
	Block[ 4]            0.00000 [K]
	------------------------------------------------------------------------------
	Average              0.00000 [K] +/-            0.00000 [K]

Average Adsorbate Intra charge-charge Coulomb energy:
=======================================
	Block[ 0]            0.00000 [K]
	Block[ 1]            0.00000 [K]
	Block[ 2]            0.00000 [K]
	Block[ 3]            0.00000 [K]
	Block[ 4]            0.00000 [K]
	------------------------------------------------------------------------------
	Average              0.00000 [K] +/-            0.00000 [K]

Average Adsorbate Intra charge-bonddipole Coulomb energy:
=======================================
	Block[ 0]            0.00000 [K]
	Block[ 1]            0.00000 [K]
	Block[ 2]            0.00000 [K]
	Block[ 3]            0.00000 [K]
	Block[ 4]            0.00000 [K]
	------------------------------------------------------------------------------
	Average              0.00000 [K] +/-            0.00000 [K]

Average Adsorbate Intra bonddipole-bonddipole Coulomb energy:
=======================================
	Block[ 0]            0.00000 [K]
	Block[ 1]            0.00000 [K]
	Block[ 2]            0.00000 [K]
	Block[ 3]            0.00000 [K]
	Block[ 4]            0.00000 [K]
	------------------------------------------------------------------------------
	Average              0.00000 [K] +/-            0.00000 [K]

Average Cation Bond stretch energy:
=================================
	Block[ 0]            0.00000 [K]
	Block[ 1]            0.00000 [K]
	Block[ 2]            0.00000 [K]
	Block[ 3]            0.00000 [K]
	Block[ 4]            0.00000 [K]
	------------------------------------------------------------------------------
	Average              0.00000 [K] +/-            0.00000 [K]

Average Cation UreyBradley stretch energy:
==========================================
	Block[ 0]            0.00000 [K]
	Block[ 1]            0.00000 [K]
	Block[ 2]            0.00000 [K]
	Block[ 3]            0.00000 [K]
	Block[ 4]            0.00000 [K]
	------------------------------------------------------------------------------
	Average              0.00000 [K] +/-            0.00000 [K]

Average Cation Bend angle energy:
=================================
	Block[ 0]            0.00000 [K]
	Block[ 1]            0.00000 [K]
	Block[ 2]            0.00000 [K]
	Block[ 3]            0.00000 [K]
	Block[ 4]            0.00000 [K]
	------------------------------------------------------------------------------
	Average              0.00000 [K] +/-            0.00000 [K]

Average Cation Bend angle inversion energy:
===========================================
	Block[ 0]            0.00000 [K]
	Block[ 1]            0.00000 [K]
	Block[ 2]            0.00000 [K]
	Block[ 3]            0.00000 [K]
	Block[ 4]            0.00000 [K]
	------------------------------------------------------------------------------
	Average              0.00000 [K] +/-            0.00000 [K]

Average Cation Torsion energy:
==============================
	Block[ 0]            0.00000 [K]
	Block[ 1]            0.00000 [K]
	Block[ 2]            0.00000 [K]
	Block[ 3]            0.00000 [K]
	Block[ 4]            0.00000 [K]
	------------------------------------------------------------------------------
	Average              0.00000 [K] +/-            0.00000 [K]

Average Cation Improper Torsion energy:
=======================================
	Block[ 0]            0.00000 [K]
	Block[ 1]            0.00000 [K]
	Block[ 2]            0.00000 [K]
	Block[ 3]            0.00000 [K]
	Block[ 4]            0.00000 [K]
	------------------------------------------------------------------------------
	Average              0.00000 [K] +/-            0.00000 [K]

Average Cation Bond-Bond cross term energy:
=================================================
	Block[ 0]            0.00000 [K]
	Block[ 1]            0.00000 [K]
	Block[ 2]            0.00000 [K]
	Block[ 3]            0.00000 [K]
	Block[ 4]            0.00000 [K]
	------------------------------------------------------------------------------
	Average              0.00000 [K] +/-            0.00000 [K]

Average Cation Bend-Bend cross term energy:
===========================================
	Block[ 0]            0.00000 [K]
	Block[ 1]            0.00000 [K]
	Block[ 2]            0.00000 [K]
	Block[ 3]            0.00000 [K]
	Block[ 4]            0.00000 [K]
	------------------------------------------------------------------------------
	Average              0.00000 [K] +/-            0.00000 [K]

Average Cation Bond-Bend cross term energy:
==============================================
	Block[ 0]            0.00000 [K]
	Block[ 1]            0.00000 [K]
	Block[ 2]            0.00000 [K]
	Block[ 3]            0.00000 [K]
	Block[ 4]            0.00000 [K]
	------------------------------------------------------------------------------
	Average              0.00000 [K] +/-            0.00000 [K]

Average Cation Bond-Torsion cross term energy:
==============================================
	Block[ 0]            0.00000 [K]
	Block[ 1]            0.00000 [K]
	Block[ 2]            0.00000 [K]
	Block[ 3]            0.00000 [K]
	Block[ 4]            0.00000 [K]
	------------------------------------------------------------------------------
	Average              0.00000 [K] +/-            0.00000 [K]

Average Cation Bend-Torsion cross term energy:
==============================================
	Block[ 0]            0.00000 [K]
	Block[ 1]            0.00000 [K]
	Block[ 2]            0.00000 [K]
	Block[ 3]            0.00000 [K]
	Block[ 4]            0.00000 [K]
	------------------------------------------------------------------------------
	Average              0.00000 [K] +/-            0.00000 [K]

Average Cation Intra Van der Waals energy:
==========================================
	Block[ 0]            0.00000 [K]
	Block[ 1]            0.00000 [K]
	Block[ 2]            0.00000 [K]
	Block[ 3]            0.00000 [K]
	Block[ 4]            0.00000 [K]
	------------------------------------------------------------------------------
	Average              0.00000 [K] +/-            0.00000 [K]

Average Cation Intra charge-charge Coulomb energy:
====================================
	Block[ 0]            0.00000 [K]
	Block[ 1]            0.00000 [K]
	Block[ 2]            0.00000 [K]
	Block[ 3]            0.00000 [K]
	Block[ 4]            0.00000 [K]
	------------------------------------------------------------------------------
	Average              0.00000 [K] +/-            0.00000 [K]

Average Cation Intra charge-bonddipole Coulomb energy:
====================================
	Block[ 0]            0.00000 [K]
	Block[ 1]            0.00000 [K]
	Block[ 2]            0.00000 [K]
	Block[ 3]            0.00000 [K]
	Block[ 4]            0.00000 [K]
	------------------------------------------------------------------------------
	Average              0.00000 [K] +/-            0.00000 [K]

Average Cation Intra bonddipole-bonddipole Coulomb energy:
====================================
	Block[ 0]            0.00000 [K]
	Block[ 1]            0.00000 [K]
	Block[ 2]            0.00000 [K]
	Block[ 3]            0.00000 [K]
	Block[ 4]            0.00000 [K]
	------------------------------------------------------------------------------
	Average              0.00000 [K] +/-            0.00000 [K]

Average Host-Host energy:
=========================
	Block[ 0] 0.00000            Van der Waals: 0.00000            Coulomb: 0.00000            [K]
	Block[ 1] 0.00000            Van der Waals: 0.00000            Coulomb: 0.00000            [K]
	Block[ 2] 0.00000            Van der Waals: 0.00000            Coulomb: 0.00000            [K]
	Block[ 3] 0.00000            Van der Waals: 0.00000            Coulomb: 0.00000            [K]
	Block[ 4] 0.00000            Van der Waals: 0.00000            Coulomb: 0.00000            [K]
	------------------------------------------------------------------------------
	Average   0.00000            Van der Waals: 0.000000           Coulomb: 0.00000            [K]
	      +/- 0.00000                       +/- 0.000000                +/- 0.00000            [K]

Average Adsorbate-Adsorbate energy:
===================================
	Block[ 0] 0.00000            Van der Waals: 0.00000            Coulomb: 0.00000            [K]
	Block[ 1] 0.00000            Van der Waals: 0.00000            Coulomb: 0.00000            [K]
	Block[ 2] 0.00000            Van der Waals: 0.00000            Coulomb: 0.00000            [K]
	Block[ 3] 0.00000            Van der Waals: 0.00000            Coulomb: 0.00000            [K]
	Block[ 4] 0.00000            Van der Waals: 0.00000            Coulomb: 0.00000            [K]
	------------------------------------------------------------------------------
	Average   0.00000            Van der Waals: 0.000000           Coulomb: 0.00000            [K]
	      +/- 0.00000                       +/- 0.000000                +/- 0.00000            [K]

Average Cation-Cation energy:
=============================
	Block[ 0] 0.00000            Van der Waals: 0.00000            Coulomb: 0.00000            [K]
	Block[ 1] 0.00000            Van der Waals: 0.00000            Coulomb: 0.00000            [K]
	Block[ 2] 0.00000            Van der Waals: 0.00000            Coulomb: 0.00000            [K]
	Block[ 3] 0.00000            Van der Waals: 0.00000            Coulomb: 0.00000            [K]
	Block[ 4] 0.00000            Van der Waals: 0.00000            Coulomb: 0.00000            [K]
	------------------------------------------------------------------------------
	Average   0.00000            Van der Waals: 0.000000           Coulomb: 0.00000            [K]
	      +/- 0.00000                       +/- 0.000000                +/- 0.00000            [K]

Average Host-Adsorbate energy:
==============================
	Block[ 0] 0.00000            Van der Waals: 0.00000            Coulomb: 0.00000            [K]
	Block[ 1] 0.00000            Van der Waals: 0.00000            Coulomb: 0.00000            [K]
	Block[ 2] 0.00000            Van der Waals: 0.00000            Coulomb: 0.00000            [K]
	Block[ 3] 0.00000            Van der Waals: 0.00000            Coulomb: 0.00000            [K]
	Block[ 4] 0.00000            Van der Waals: 0.00000            Coulomb: 0.00000            [K]
	------------------------------------------------------------------------------
	Average   0.00000            Van der Waals: 0.000000           Coulomb: 0.00000            [K]
	      +/- 0.00000                       +/- 0.000000                +/- 0.00000            [K]

Average Host-Cation energy:
===========================
	Block[ 0] 0.00000            Van der Waals: 0.00000            Coulomb: 0.00000            [K]
	Block[ 1] 0.00000            Van der Waals: 0.00000            Coulomb: 0.00000            [K]
	Block[ 2] 0.00000            Van der Waals: 0.00000            Coulomb: 0.00000            [K]
	Block[ 3] 0.00000            Van der Waals: 0.00000            Coulomb: 0.00000            [K]
	Block[ 4] 0.00000            Van der Waals: 0.00000            Coulomb: 0.00000            [K]
	------------------------------------------------------------------------------
	Average   0.00000            Van der Waals: 0.000000           Coulomb: 0.00000            [K]
	      +/- 0.00000                       +/- 0.000000                +/- 0.00000            [K]

Average Adsorbate-Cation energy:
================================
	Block[ 0] 0.00000            Van der Waals: 0.00000            Coulomb: 0.00000            [K]
	Block[ 1] 0.00000            Van der Waals: 0.00000            Coulomb: 0.00000            [K]
	Block[ 2] 0.00000            Van der Waals: 0.00000            Coulomb: 0.00000            [K]
	Block[ 3] 0.00000            Van der Waals: 0.00000            Coulomb: 0.00000            [K]
	Block[ 4] 0.00000            Van der Waals: 0.00000            Coulomb: 0.00000            [K]
	------------------------------------------------------------------------------
	Average   0.00000            Van der Waals: 0.000000           Coulomb: 0.00000            [K]
	      +/- 0.00000                       +/- 0.000000                +/- 0.00000            [K]

Host polarization energy:
=======================
	Block[ 0]            0.00000 [K]
	Block[ 1]            0.00000 [K]
	Block[ 2]            0.00000 [K]
	Block[ 3]            0.00000 [K]
	Block[ 4]            0.00000 [K]
	------------------------------------------------------------------------------
	Average              0.00000 [K] +/-            0.00000 [K]

Adsorbate polarization energy:
=======================
	Block[ 0]            0.00000 [K]
	Block[ 1]            0.00000 [K]
	Block[ 2]            0.00000 [K]
	Block[ 3]            0.00000 [K]
	Block[ 4]            0.00000 [K]
	------------------------------------------------------------------------------
	Average              0.00000 [K] +/-            0.00000 [K]

Cation polarization energy:
=======================
	Block[ 0]            0.00000 [K]
	Block[ 1]            0.00000 [K]
	Block[ 2]            0.00000 [K]
	Block[ 3]            0.00000 [K]
	Block[ 4]            0.00000 [K]
	------------------------------------------------------------------------------
	Average              0.00000 [K] +/-            0.00000 [K]

Host back-polarization energy:
=======================
	Block[ 0]            0.00000 [K]
	Block[ 1]            0.00000 [K]
	Block[ 2]            0.00000 [K]
	Block[ 3]            0.00000 [K]
	Block[ 4]            0.00000 [K]
	------------------------------------------------------------------------------
	Average              0.00000 [K] +/-            0.00000 [K]

Adsorbate back-polarization energy:
=======================
	Block[ 0]            0.00000 [K]
	Block[ 1]            0.00000 [K]
	Block[ 2]            0.00000 [K]
	Block[ 3]            0.00000 [K]
	Block[ 4]            0.00000 [K]
	------------------------------------------------------------------------------
	Average              0.00000 [K] +/-            0.00000 [K]

Cation back-polarization energy:
=======================
	Block[ 0]            0.00000 [K]
	Block[ 1]            0.00000 [K]
	Block[ 2]            0.00000 [K]
	Block[ 3]            0.00000 [K]
	Block[ 4]            0.00000 [K]
	------------------------------------------------------------------------------
	Average              0.00000 [K] +/-            0.00000 [K]

Tail-correction energy:
=======================
	Block[ 0]            0.00000 [K]
	Block[ 1]            0.00000 [K]
	Block[ 2]            0.00000 [K]
	Block[ 3]            0.00000 [K]
	Block[ 4]            0.00000 [K]
	------------------------------------------------------------------------------
	Average              0.00000 [K] +/-            0.00000 [K]

Distance-constraints energy:
=======================
	Block[ 0]            0.00000 [K]
	Block[ 1]            0.00000 [K]
	Block[ 2]            0.00000 [K]
	Block[ 3]            0.00000 [K]
	Block[ 4]            0.00000 [K]
	------------------------------------------------------------------------------
	Average              0.00000 [K] +/-            0.00000 [K]

Angle-constraints energy:
=======================
	Block[ 0]            0.00000 [K]
	Block[ 1]            0.00000 [K]
	Block[ 2]            0.00000 [K]
	Block[ 3]            0.00000 [K]
	Block[ 4]            0.00000 [K]
	------------------------------------------------------------------------------
	Average              0.00000 [K] +/-            0.00000 [K]

Dihedral-constraints energy:
=======================
	Block[ 0]            0.00000 [K]
	Block[ 1]            0.00000 [K]
	Block[ 2]            0.00000 [K]
	Block[ 3]            0.00000 [K]
	Block[ 4]            0.00000 [K]
	------------------------------------------------------------------------------
	Average              0.00000 [K] +/-            0.00000 [K]

Inversion-bend constraints energy:
=======================
	Block[ 0]            0.00000 [K]
	Block[ 1]            0.00000 [K]
	Block[ 2]            0.00000 [K]
	Block[ 3]            0.00000 [K]
	Block[ 4]            0.00000 [K]
	------------------------------------------------------------------------------
	Average              0.00000 [K] +/-            0.00000 [K]

Out-of-plane-distance constraints energy:
=======================
	Block[ 0]            0.00000 [K]
	Block[ 1]            0.00000 [K]
	Block[ 2]            0.00000 [K]
	Block[ 3]            0.00000 [K]
	Block[ 4]            0.00000 [K]
	------------------------------------------------------------------------------
	Average              0.00000 [K] +/-            0.00000 [K]

Exclusion-constraints energy:
=======================
	Block[ 0]            0.00000 [K]
	Block[ 1]            0.00000 [K]
	Block[ 2]            0.00000 [K]
	Block[ 3]            0.00000 [K]
	Block[ 4]            0.00000 [K]
	------------------------------------------------------------------------------
	Average              0.00000 [K] +/-            0.00000 [K]

Total energy:
=============
	Block[ 0]            0.00000 [K]
	Block[ 1]            0.00000 [K]
	Block[ 2]            0.00000 [K]
	Block[ 3]            0.00000 [K]
	Block[ 4]            0.00000 [K]
	------------------------------------------------------------------------------
	Average              0.00000 [K] +/-            0.00000 [K]

Number of molecules:
====================


Average Widom Rosenbluth factor:
================================

Average Henry coefficient:
==========================

Average adsorption energy <U_gh>_1-<U_h>_0 obtained from Widom-insertion:
(Note: the total heat of adsorption is dH=<U_gh>_1-<U_h>_0 - <U_g> - RT)
=========================================================================

Simulation finished,  0 warnings

Thu Apr 18 12:05:10 2013
Simulation finished on Thursday, April 18.
The end time was 12:05 PM.

