Compiler and run-time data
===========================================================================
RASPA 2.0
Compiled as a 64-bits application
Compiler: gcc 4.2.1 Compatible Apple LLVM 6.0 (clang-600.0.54)
Compile Date = Feb 15 2015, Compile Time = 12:56:04

Tue Mar  3 10:06:02 2015
Simulation started on Tuesday, March 03.
The start time was 10:06 AM.

Cpu data:    x86_64
Cpu Model:   MacPro5,1
Host name:   server.darkwing.nl
OS release:  14.1.0
OS type:     Darwin
OS version:  14C109


Simulation
===========================================================================
Dimensions: 3
Random number seed: 1425373559
RASPA directory set to: /Users/dubbelda/RASPA/simulations/
String appended to output-files: 
Number of cycles: 1
Number of initializing cycles: 0
Number of equilibration cycles: 0
Print every: 1
Triclinic boundary condition applied
Timestep: 0.000500
Initialization Ensemble: NPT full cell fluctuations (Parinello-Rahman) using the upper triangle of the box-matrix
          (constant number of particles N, constant average pressure P, constant average temperature T)
Production run ensemble: NPT full cell fluctuations (Parinello-Rahman) using the upper triangle of the box-matrix
          (constant number of particles N, constant average pressure P, constant average temperature T)
	Degrees of freedom:                        240
	Translational Degrees of freedom:          234
	Rotational Degrees of freedom:             6
	Degrees of freedom Framework:              228


Mutual consistent basic set of units:
======================================
Unit of temperature: Kelvin
Unit of length:      1e-10 [m]
Unit of time:        1e-12 [s]
Unit of mass:        1.66054e-27 [kg]
Unit of charge:      1.60218e-19 [C/particle]

Derived units and their conversion factors:
===========================================
Unit of energy:              1.66054e-23 [J]
Unit of force:               1.66054e-13 [N]
Unit of pressure:            1.66054e+07 [Pa]
Unit of velocity:            100 [m/s]
Unit of acceleration:        1e-08 [m^2/s]
Unit of diffusion:           1e-08 [m^2/s]
Unit of dipole moment:       1.60218e-29 [C.m]
Unit of electric potential:  0.000103643 [V]
Unit of electric field:      1.03643e+06 [V]
Unit of polarizability:      1.54587e-35 [-]
Unit of Coulomb potential:   167101.0800066561  [K]
Unit of dielectric constant: 0.0000154587       [s^2 C^2/(kg m^3)]
Unit of wave vectors:        5.3088374589       [cm^1]
Boltzmann constant:          0.8314464919       [-]

Internal conversion factors:
===========================================
Energy to Kelvin:                                    1.2027242847
FH correction factor                                 2.0211930949
Heat capacity conversion factor:                    10.0000088723
From Debye to internal units:                        4.8032067991
Isothermal compressibility conversion factor:        0.0000000602

Energy conversion factors:
===========================================
From mdyne/A to kcal/mol/A^2:           143.933
From mdyne/A to kj/mol/A^2:             602.214
From mdyne/A to K/A^2:                  72429.7
From mdyne A/rad^2 to kcal/mol/deg^2:   0.0438444


Properties computed
===========================================================================
Movies: yes
	Movie snapshots are appended to file every 1 cycles
Radial Distribution Function: no
Number of molecules GCMC histogram: no
Histogram of the molecule positions: no
Free energy profiles: no
Pore Size Distribution Function: no
End-to-end distance: no
Histogram of the energy of the system: no
Compute thermodynamic factors: no
Framework spacing histograms: no
Residence times histograms: no
Distance histograms: no
Bend Angle histograms: no
Dihedral angle histograms: no
Angle between planes histograms: no
Molecule properties: no
Infra-red spectra: no
Mean-squared displacement using modified order-N algorithm: no
Velocity-autocorrelation function modified order-N algorithm: no
Rotational velocity-autocorrelation function modified order-N algorithm: no
Molecular orientation-autocorrelation function modified order-N algorithm: no
Bond orientation-autocorrelation function modified order-N algorithm: no
Mean-squared displacement (conventional algorithm): no
Velocity-autocorrelation function (conventional algorithm): no
3D density grid for adsorbates: no
Compute cation an/or adsorption sites: no
dcTST snapshots: no
Compute pressure and stress: no


VTK
===========================================================================
VTK fractional-range position framework atoms: [-0.001000,1.001000] [-0.001000,1.001000] [-0.001000,1.001000]
VTK fractional-range position framework bonds: [-0.151000,1.151000] [-0.151000,1.151000] [-0.151000,1.151000]
VTK fractional-range com-position adsorbate molecules: [-0.101000,1.101000] [-0.101000,1.101000] [-0.101000,1.101000]
VTK fractional-range com-position cation molecules: [-0.101000,1.101000] [-0.101000,1.101000] [-0.101000,1.101000]
	3D free energy grid made for the full simulation-cell


Thermo/Baro-stat NHC parameters
===========================================================================
External temperature: 298 [K]
Beta: 0.00403598 [energy unit]
External Pressure: 0 [Pa]


Thermostat chain-length: 3
Timescale parameter for thermostat: 0.150000 [ps]
Barostat chain-length:   3
Timescale parameter for barostat:   0.150000 [ps]

Number of Yoshida-Suzuki decomposition steps: 5
Number of respa steps: 5


Method and settings for electrostatics
===============================================================================
Dielectric constant of the medium : 1.000000
Charge from charge-equilibration: no
Ewald summation is used (exact solution of a periodic system)
Relative precision                : 1e-14
Alpha convergence parameter       : 0.441390
kvec (x,y,z)                      : 12 10 5


CFC-RXMC parameters
===========================================================================
Number of reactions: 0


Rattle parameters
===========================================================================
Distance constraint type: r^2-r^2_0
Bend angle constraint type: theta-theta_0
Dihedral angle constraint type: phi-phi_0
Inversion-bend angle constraint type: chi-chi_0
Out-of-plane distance constraint type: r-r_0


Spectra parameters
===========================================================================
Compute normal modes: no


Minimization parameters
===========================================================================
Generalized coordinates are: Cartesian center-of-mass, elements of the orientational matrix p1,p2,p3 and strain
Potential derivatives are evaluated: analytically
Translation of the system is removed from the generalized Hessian: no
Rotation of the system is removed from the generalized Hessian: no
Maximum step-length: 0.3
Convergence factor: 1
Maximum number of minimization steps: 10000
Use gradients in the line-minimizations: yes
RMS gradient tolerance: 1e-07
Maximum gradient tolerance: 1e-07

Distance constraints: 0
Angle constraints: 0
Dihedral constraints: 0

Improper dihedral constraints: 0

Inversion-bend constraints: 0

Out-of-plane constraints: 0

Harmonic distance constraints: 0
Harmonic angle constraints: 0
Harmonic dihedral constraints: 0

Dihedral mid-point measurements: 0

Number of fixed framework atoms: 0  (active: 76)
fixed atom-list: 
Number of active framework atoms: 76  (fixed: 0)
active atom-list: 

Fixed adsorbate atoms:  
Fixed adsorbate groups (center-of-mass):  
Fixed adsorbate groups (orientation):  

Fixed cation atoms:  
Fixed cation groups (center-of-mass):  
Fixed cation groups (orientation):  


dcTST parameters
===========================================================================
Free energy profiles computed: no
Free energy profiles written every 5000 cycles
Free energy mapping: mapped to a,b,c-coordinates
BarrierPosition:       0.0000000000       0.0000000000       0.0000000000
BarrierNormal:         0.0000000000       0.0000000000       0.0000000000
Start with a molecule on top of the barrier: no
Maximum distance to barrier (e.g. distance to minumum free energy):       0.0000000000 [A]
Maximum trajectory time:      10.0000000000 [ps]
Each configuration is used with 5 different initial velocities


Cbmc parameters
===========================================================================
Biasing method: using only the VDW part
Number of trial positions:                                       10
Number of trial positions (reinsertion):                         10
Number of trial positions (partial reinsertion):                 10
Number of trial positions (identity-change):                     10
Number of trial positions (Gibbs particle transfer):             10
Number of trial positions (insertion/deletion):                  10
Number of trial positions (Widom insertion):                     10
Number of trial positions coupled Torsion-selection:             100
Number of trial positions first bead:                            10
Number of trial positions first bead (reinsertion):              10
Number of trial positions first bead (partial reinsertion):      10
Number of trial positions first bead (identity-change):          10
Number of trial positions first bead (Gibbs particle transfer):  10
Number of trial positions first bead (insertion/deletion):       10
Number of trial positions first bead (Widom insertion):          10
Number of trial moves per open bead:                             150
Target acceptance ratio small-mc scheme:                         0.400000
Energy overlap criteria:                                         1e+07
Minimal Rosenbluth factor:                                       1e-150


Pseudo atoms: 24
===========================================================================
Pseudo Atom[   0] Name UNIT     Oxidation:          Element: H    pdb-name: H    Scat. Types:   1   1 Mass=1.000000000  B-factor:0.000   
                 Charge=1.000000000          Polarization=0.000000000  [A^3] (considered a charged atom and no polarization)  Interactions: yes
                 Anisotropic factor:    0.000 [-] (Absolute), Radius:    1.000 [A], Framework-atom:  no
Pseudo Atom[   1] Name He       Oxidation: +0       Element: He   pdb-name: He   Scat. Types:   3   2 Mass=4.002602000  B-factor:1.000   
                 Charge=0.000000000          Polarization=0.000000000  [A^3] (considered a chargeless atom and no polarization)  Interactions: yes
                 Anisotropic factor:    0.000 [-] (Relative), Radius:    1.000 [A], Framework-atom:  no
Pseudo Atom[   2] Name Cr1      Oxidation: +0       Element: Cr   pdb-name: Cr   Scat. Types:  25  24 Mass=51.996100000 B-factor:1.000   
                 Charge=1.031000000          Polarization=0.000000000  [A^3] (considered a charged atom and no polarization)  Interactions: yes
                 Anisotropic factor:    0.000 [-] (Relative), Radius:    1.200 [A], Framework-atom: yes (charge from pseudo-atoms file)
Pseudo Atom[   3] Name O1       Oxidation: +0       Element: O    pdb-name: O    Scat. Types:   9   8 Mass=15.999400000 B-factor:1.000   
                 Charge=-0.637000000         Polarization=0.000000000  [A^3] (considered a charged atom and no polarization)  Interactions: yes
                 Anisotropic factor:    0.000 [-] (Relative), Radius:    0.680 [A], Framework-atom: yes (charge from pseudo-atoms file)
Pseudo Atom[   4] Name O2       Oxidation: +0       Element: O    pdb-name: O    Scat. Types:   9   8 Mass=15.999400000 B-factor:1.000   
                 Charge=-0.506000000         Polarization=0.000000000  [A^3] (considered a charged atom and no polarization)  Interactions: yes
                 Anisotropic factor:    0.000 [-] (Relative), Radius:    0.680 [A], Framework-atom: yes (charge from pseudo-atoms file)
Pseudo Atom[   5] Name C1       Oxidation: +0       Element: C    pdb-name: C    Scat. Types:   7   6 Mass=12.010700000 B-factor:1.000   
                 Charge=0.612600000          Polarization=0.000000000  [A^3] (considered a charged atom and no polarization)  Interactions: yes
                 Anisotropic factor:    0.000 [-] (Relative), Radius:    0.720 [A], Framework-atom: yes (charge from pseudo-atoms file)
Pseudo Atom[   6] Name C2       Oxidation: +0       Element: C    pdb-name: C    Scat. Types:   7   6 Mass=12.010700000 B-factor:1.000   
                 Charge=-0.073900000         Polarization=0.000000000  [A^3] (considered a charged atom and no polarization)  Interactions: yes
                 Anisotropic factor:    0.000 [-] (Relative), Radius:    0.720 [A], Framework-atom: yes (charge from pseudo-atoms file)
Pseudo Atom[   7] Name C3       Oxidation: +0       Element: C    pdb-name: C    Scat. Types:   7   6 Mass=12.010700000 B-factor:1.000   
                 Charge=-0.073900000         Polarization=0.000000000  [A^3] (considered a charged atom and no polarization)  Interactions: yes
                 Anisotropic factor:    0.000 [-] (Relative), Radius:    0.720 [A], Framework-atom: yes (charge from pseudo-atoms file)
Pseudo Atom[   8] Name H1       Oxidation: +0       Element: H    pdb-name: H    Scat. Types:   1   1 Mass=1.007940000  B-factor:1.000   
                 Charge=0.139300000          Polarization=0.000000000  [A^3] (considered a charged atom and no polarization)  Interactions: yes
                 Anisotropic factor:    0.000 [-] (Relative), Radius:    0.320 [A], Framework-atom: yes (charge from pseudo-atoms file)
Pseudo Atom[   9] Name Ho1      Oxidation: +0       Element: H    pdb-name: H    Scat. Types:   1   1 Mass=1.007940000  B-factor:1.000   
                 Charge=0.291000000          Polarization=0.000000000  [A^3] (considered a charged atom and no polarization)  Interactions: yes
                 Anisotropic factor:    0.000 [-] (Relative), Radius:    0.320 [A], Framework-atom: yes (charge from pseudo-atoms file)
Pseudo Atom[  10] Name C_co2    Oxidation: +0       Element: C    pdb-name: C    Scat. Types:   7   6 Mass=12.010700000 B-factor:1.000   
                 Charge=0.700000000          Polarization=0.000000000  [A^3] (considered a charged atom and no polarization)  Interactions: yes
                 Anisotropic factor:    0.000 [-] (Relative), Radius:    0.720 [A], Framework-atom:  no
Pseudo Atom[  11] Name O_co2    Oxidation: +0       Element: O    pdb-name: O    Scat. Types:   9   8 Mass=15.999400000 B-factor:1.000   
                 Charge=-0.350000000         Polarization=0.000000000  [A^3] (considered a charged atom and no polarization)  Interactions: yes
                 Anisotropic factor:    0.000 [-] (Relative), Radius:    0.680 [A], Framework-atom:  no
Pseudo Atom[  12] Name N_n2     Oxidation: +0       Element: N    pdb-name: N    Scat. Types:   8   7 Mass=14.006740000 B-factor:1.000   
                 Charge=-0.482000000         Polarization=0.000000000  [A^3] (considered a charged atom and no polarization)  Interactions: yes
                 Anisotropic factor:    0.000 [-] (Relative), Radius:    0.700 [A], Framework-atom:  no
Pseudo Atom[  13] Name N_com    Oxidation: +0       Element: N    pdb-name: N    Scat. Types:   8   7 Mass=0.000000000  B-factor:1.000   
                 Charge=0.964000000          Polarization=0.000000000  [A^3] (considered a charged atom and no polarization)  Interactions: yes
                 Anisotropic factor:    0.000 [-] (Relative), Radius:    0.700 [A], Framework-atom:  no
Pseudo Atom[  14] Name H_h2     Oxidation: +0       Element: H    pdb-name: H    Scat. Types:   1   1 Mass=1.007940000  B-factor:1.000   
                 Charge=0.468000000          Polarization=0.000000000  [A^3] (considered a charged atom and no polarization)  Interactions: yes
                 Anisotropic factor:    0.000 [-] (Relative), Radius:    0.700 [A], Framework-atom:  no
Pseudo Atom[  15] Name H_com    Oxidation: +0       Element: H    pdb-name: H    Scat. Types:   1   1 Mass=0.000000000  B-factor:1.000   
                 Charge=-0.936000000         Polarization=0.000000000  [A^3] (considered a charged atom and no polarization)  Interactions: yes
                 Anisotropic factor:    0.000 [-] (Relative), Radius:    0.700 [A], Framework-atom:  no
Pseudo Atom[  16] Name CH4_sp3  Oxidation: +0       Element: C    pdb-name: C    Scat. Types:   7   6 Mass=16.042460000 B-factor:1.000   
                 Charge=0.000000000          Polarization=0.000000000  [A^3] (considered a chargeless atom and no polarization)  Interactions: yes
                 Anisotropic factor:    0.000 [-] (Relative), Radius:    1.000 [A], Framework-atom:  no
Pseudo Atom[  17] Name CH3_sp3  Oxidation: +0       Element: C    pdb-name: C    Scat. Types:   7   6 Mass=15.034520000 B-factor:1.000   
                 Charge=0.000000000          Polarization=0.000000000  [A^3] (considered a chargeless atom and no polarization)  Interactions: yes
                 Anisotropic factor:    0.000 [-] (Relative), Radius:    1.000 [A], Framework-atom:  no
Pseudo Atom[  18] Name CH2_sp3  Oxidation: +0       Element: C    pdb-name: C    Scat. Types:   7   6 Mass=14.026580000 B-factor:1.000   
                 Charge=0.000000000          Polarization=0.000000000  [A^3] (considered a chargeless atom and no polarization)  Interactions: yes
                 Anisotropic factor:    0.000 [-] (Relative), Radius:    1.000 [A], Framework-atom:  no
Pseudo Atom[  19] Name CH_sp3   Oxidation: +0       Element: C    pdb-name: C    Scat. Types:   7   6 Mass=13.018640000 B-factor:1.000   
                 Charge=0.000000000          Polarization=0.000000000  [A^3] (considered a chargeless atom and no polarization)  Interactions: yes
                 Anisotropic factor:    0.000 [-] (Relative), Radius:    1.000 [A], Framework-atom:  no
Pseudo Atom[  20] Name C_sp3    Oxidation: +0       Element: C    pdb-name: C    Scat. Types:   7   6 Mass=12.000000000 B-factor:1.000   
                 Charge=0.000000000          Polarization=0.000000000  [A^3] (considered a chargeless atom and no polarization)  Interactions: yes
                 Anisotropic factor:    0.000 [-] (Relative), Radius:    1.000 [A], Framework-atom:  no
Pseudo Atom[  21] Name Ow       Oxidation: +0       Element: O    pdb-name: O    Scat. Types:   9   8 Mass=15.999400000 B-factor:1.000   
                 Charge=0.000000000          Polarization=0.000000000  [A^3] (considered a chargeless atom and no polarization)  Interactions: yes
                 Anisotropic factor:    0.000 [-] (Relative), Radius:    0.500 [A], Framework-atom:  no
Pseudo Atom[  22] Name Hw       Oxidation: +0       Element: H    pdb-name: H    Scat. Types:   1   1 Mass=1.008000000  B-factor:1.000   
                 Charge=0.241000000          Polarization=0.000000000  [A^3] (considered a charged atom and no polarization)  Interactions: yes
                 Anisotropic factor:    0.000 [-] (Relative), Radius:    1.000 [A], Framework-atom:  no
Pseudo Atom[  23] Name Lw       Oxidation: +0       Element: -    pdb-name: L    Scat. Types:   0   3 Mass=0.000000000  B-factor:1.000   
                 Charge=-0.241000000         Polarization=0.000000000  [A^3] (considered a charged atom and no polarization)  Interactions: yes
                 Anisotropic factor:    0.000 [-] (Relative), Radius:    1.000 [A], Framework-atom:  no


Forcefield: MIL-53
===========================================================================
Minimal distance: 1
CutOff VDW : 12.000000 (144.000000)
CutOff VDW switching on: 10.800000 (116.640000)
CutOff charge-charge : 12.000000 (144.000000)
CutOff charge-charge switching on: 7.800000 (60.840000)
CutOff charge-bonddipole : 12.000000 (144.000000)
CutOff charge-bondipole switching on: 8.400000 (70.560000)
CutOff bonddipole-bonddipole : 12.000000 (144.000000)
CutOff bonddipole-bondipole switching on: 9.000000 (81.000000)
Polarization is neglected
All potentials are shifted to zero at the Cutoff

General mixing rule: Lorentz-Berthelot mixing rules are used FIRST for cross terms
0 cross terms are overwritten using the individual mixing rules from the file 'force_field_mixing_rules.def'
and then 0 terms are overwritten using the specific interactions from the file 'force_field.def'

The force field and all the interactions:
     He -      He [LENNARD_JONES] p_0/k_B:  10.90000 [K], p_1: 2.64000 [A], shift/k_B:  -0.00494280 [K], tailcorrection: no
     He -     Cr1 [LENNARD_JONES] p_0/k_B:   9.07046 [K], p_1: 2.66650 [A], shift/k_B:  -0.00436716 [K], tailcorrection: no
     He -      O1 [LENNARD_JONES] p_0/k_B:  30.53265 [K], p_1: 2.88000 [A], shift/k_B:  -0.02333506 [K], tailcorrection: no
     He -      O2 [LENNARD_JONES] p_0/k_B:  22.91118 [K], p_1: 2.83650 [A], shift/k_B:  -0.01598236 [K], tailcorrection: no
     He -      C1 [LENNARD_JONES] p_0/k_B:  22.83923 [K], p_1: 3.05650 [A], shift/k_B:  -0.02493916 [K], tailcorrection: no
     He -      C2 [LENNARD_JONES] p_0/k_B:  22.83923 [K], p_1: 3.05650 [A], shift/k_B:  -0.02493916 [K], tailcorrection: no
     He -      C3 [LENNARD_JONES] p_0/k_B:  22.83923 [K], p_1: 3.05650 [A], shift/k_B:  -0.02493916 [K], tailcorrection: no
     He -      H1 [LENNARD_JONES] p_0/k_B:   9.13094 [K], p_1: 2.74300 [A], shift/k_B:  -0.00520932 [K], tailcorrection: no
     He -     Ho1 [HARD_SPHERE] radius:   1.00000
     He -   C_co2 [LENNARD_JONES] p_0/k_B:  17.15517 [K], p_1: 2.72000 [A], shift/k_B:  -0.00930512 [K], tailcorrection: no
     He -   O_co2 [LENNARD_JONES] p_0/k_B:  29.34451 [K], p_1: 2.84500 [A], shift/k_B:  -0.02084087 [K], tailcorrection: no
     He -    N_n2 [LENNARD_JONES] p_0/k_B:  19.80909 [K], p_1: 2.97500 [A], shift/k_B:  -0.01839323 [K], tailcorrection: no
     He -   H_com [LENNARD_JONES] p_0/k_B:  20.00075 [K], p_1: 2.79900 [A], shift/k_B:  -0.01288149 [K], tailcorrection: no
     He - CH4_sp3 [LENNARD_JONES] p_0/k_B:  41.56501 [K], p_1: 3.18000 [A], shift/k_B:  -0.05755893 [K], tailcorrection: no
     He - CH3_sp3 [LENNARD_JONES] p_0/k_B:  34.31035 [K], p_1: 3.20000 [A], shift/k_B:  -0.04933343 [K], tailcorrection: no
     He - CH2_sp3 [LENNARD_JONES] p_0/k_B:  24.70627 [K], p_1: 3.30000 [A], shift/k_B:  -0.04272436 [K], tailcorrection: no
     He -  CH_sp3 [LENNARD_JONES] p_0/k_B:  13.61249 [K], p_1: 3.65500 [A], shift/k_B:  -0.04343978 [K], tailcorrection: no
     He -   C_sp3 [LENNARD_JONES] p_0/k_B:   2.95296 [K], p_1: 4.51000 [A], shift/k_B:  -0.03319436 [K], tailcorrection: no
     He -      Ow [LENNARD_JONES] p_0/k_B:  31.25699 [K], p_1: 2.86850 [A], shift/k_B:  -0.02332211 [K], tailcorrection: no
     He -      Hw [ZERO_POTENTIAL]
     He -      Lw [ZERO_POTENTIAL]
    Cr1 -     Cr1 [LENNARD_JONES] p_0/k_B:   7.54800 [K], p_1: 2.69300 [A], shift/k_B:  -0.00385627 [K], tailcorrection: no
    Cr1 -      O1 [LENNARD_JONES] p_0/k_B:  25.40781 [K], p_1: 2.90650 [A], shift/k_B:  -0.02051512 [K], tailcorrection: no
    Cr1 -      O2 [LENNARD_JONES] p_0/k_B:  19.06559 [K], p_1: 2.86300 [A], shift/k_B:  -0.01406276 [K], tailcorrection: no
    Cr1 -      C1 [LENNARD_JONES] p_0/k_B:  19.00571 [K], p_1: 3.08300 [A], shift/k_B:  -0.02185611 [K], tailcorrection: no
    Cr1 -      C2 [LENNARD_JONES] p_0/k_B:  19.00571 [K], p_1: 3.08300 [A], shift/k_B:  -0.02185611 [K], tailcorrection: no
    Cr1 -      C3 [LENNARD_JONES] p_0/k_B:  19.00571 [K], p_1: 3.08300 [A], shift/k_B:  -0.02185611 [K], tailcorrection: no
    Cr1 -      H1 [LENNARD_JONES] p_0/k_B:   7.59833 [K], p_1: 2.76950 [A], shift/k_B:  -0.00459233 [K], tailcorrection: no
    Cr1 -     Ho1 [HARD_SPHERE] radius:   1.00000
    Cr1 -   C_co2 [LENNARD_JONES] p_0/k_B:  14.27571 [K], p_1: 2.74650 [A], shift/k_B:  -0.00820702 [K], tailcorrection: no
    Cr1 -   O_co2 [LENNARD_JONES] p_0/k_B:  24.41909 [K], p_1: 2.87150 [A], shift/k_B:  -0.01833468 [K], tailcorrection: no
    Cr1 -    N_n2 [LENNARD_JONES] p_0/k_B:  16.48417 [K], p_1: 3.00150 [A], shift/k_B:  -0.01614223 [K], tailcorrection: no
    Cr1 -   H_com [LENNARD_JONES] p_0/k_B:  16.64367 [K], p_1: 2.82550 [A], shift/k_B:  -0.01134278 [K], tailcorrection: no
    Cr1 - CH4_sp3 [LENNARD_JONES] p_0/k_B:  34.58841 [K], p_1: 3.20650 [A], shift/k_B:  -0.05034223 [K], tailcorrection: no
    Cr1 - CH3_sp3 [LENNARD_JONES] p_0/k_B:  28.55143 [K], p_1: 3.22650 [A], shift/k_B:  -0.04313465 [K], tailcorrection: no
    Cr1 - CH2_sp3 [LENNARD_JONES] p_0/k_B:  20.55938 [K], p_1: 3.32650 [A], shift/k_B:  -0.03730015 [K], tailcorrection: no
    Cr1 -  CH_sp3 [LENNARD_JONES] p_0/k_B:  11.32767 [K], p_1: 3.68150 [A], shift/k_B:  -0.03774848 [K], tailcorrection: no
    Cr1 -   C_sp3 [LENNARD_JONES] p_0/k_B:   2.45732 [K], p_1: 4.53650 [A], shift/k_B:  -0.02860812 [K], tailcorrection: no
    Cr1 -      Ow [LENNARD_JONES] p_0/k_B:  26.01057 [K], p_1: 2.89500 [A], shift/k_B:  -0.02050823 [K], tailcorrection: no
    Cr1 -      Hw [ZERO_POTENTIAL]
    Cr1 -      Lw [ZERO_POTENTIAL]
     O1 -      O1 [LENNARD_JONES] p_0/k_B:  85.52685 [K], p_1: 3.12000 [A], shift/k_B:  -0.10564973 [K], tailcorrection: no
     O1 -      O2 [LENNARD_JONES] p_0/k_B:  64.17789 [K], p_1: 3.07650 [A], shift/k_B:  -0.07287459 [K], tailcorrection: no
     O1 -      C1 [LENNARD_JONES] p_0/k_B:  63.97635 [K], p_1: 3.29650 [A], shift/k_B:  -0.10993190 [K], tailcorrection: no
     O1 -      C2 [LENNARD_JONES] p_0/k_B:  63.97635 [K], p_1: 3.29650 [A], shift/k_B:  -0.10993190 [K], tailcorrection: no
     O1 -      C3 [LENNARD_JONES] p_0/k_B:  63.97635 [K], p_1: 3.29650 [A], shift/k_B:  -0.10993190 [K], tailcorrection: no
     O1 -      H1 [LENNARD_JONES] p_0/k_B:  25.57723 [K], p_1: 2.98300 [A], shift/k_B:  -0.02413477 [K], tailcorrection: no
     O1 -     Ho1 [HARD_SPHERE] radius:   1.00000
     O1 -   C_co2 [LENNARD_JONES] p_0/k_B:  48.05440 [K], p_1: 2.96000 [A], shift/k_B:  -0.04328706 [K], tailcorrection: no
     O1 -   O_co2 [LENNARD_JONES] p_0/k_B:  82.19867 [K], p_1: 3.08500 [A], shift/k_B:  -0.09489491 [K], tailcorrection: no
     O1 -    N_n2 [LENNARD_JONES] p_0/k_B:  55.48844 [K], p_1: 3.21500 [A], shift/k_B:  -0.08205409 [K], tailcorrection: no
     O1 -   H_com [LENNARD_JONES] p_0/k_B:  56.02531 [K], p_1: 3.03900 [A], shift/k_B:  -0.05910530 [K], tailcorrection: no
     O1 - CH4_sp3 [LENNARD_JONES] p_0/k_B: 116.43026 [K], p_1: 3.42000 [A], shift/k_B:  -0.24943778 [K], tailcorrection: no
     O1 - CH3_sp3 [LENNARD_JONES] p_0/k_B:  96.10879 [K], p_1: 3.44000 [A], shift/k_B:  -0.21322848 [K], tailcorrection: no
     O1 - CH2_sp3 [LENNARD_JONES] p_0/k_B:  69.20624 [K], p_1: 3.54000 [A], shift/k_B:  -0.18232701 [K], tailcorrection: no
     O1 -  CH_sp3 [LENNARD_JONES] p_0/k_B:  38.13078 [K], p_1: 3.89500 [A], shift/k_B:  -0.17814959 [K], tailcorrection: no
     O1 -   C_sp3 [LENNARD_JONES] p_0/k_B:   8.27173 [K], p_1: 4.75000 [A], shift/k_B:  -0.12678172 [K], tailcorrection: no
     O1 -      Ow [LENNARD_JONES] p_0/k_B:  87.55586 [K], p_1: 3.10850 [A], shift/k_B:  -0.10578686 [K], tailcorrection: no
     O1 -      Hw [ZERO_POTENTIAL]
     O1 -      Lw [ZERO_POTENTIAL]
     O2 -      O2 [LENNARD_JONES] p_0/k_B:  48.15800 [K], p_1: 3.03300 [A], shift/k_B:  -0.05020676 [K], tailcorrection: no
     O2 -      C1 [LENNARD_JONES] p_0/k_B:  48.00676 [K], p_1: 3.25300 [A], shift/k_B:  -0.07617403 [K], tailcorrection: no
     O2 -      C2 [LENNARD_JONES] p_0/k_B:  48.00676 [K], p_1: 3.25300 [A], shift/k_B:  -0.07617403 [K], tailcorrection: no
     O2 -      C3 [LENNARD_JONES] p_0/k_B:  48.00676 [K], p_1: 3.25300 [A], shift/k_B:  -0.07617403 [K], tailcorrection: no
     O2 -      H1 [LENNARD_JONES] p_0/k_B:  19.19272 [K], p_1: 2.93950 [A], shift/k_B:  -0.01658273 [K], tailcorrection: no
     O2 -     Ho1 [HARD_SPHERE] radius:   1.00000
     O2 -   C_co2 [LENNARD_JONES] p_0/k_B:  36.05920 [K], p_1: 2.91650 [A], shift/k_B:  -0.02972152 [K], tailcorrection: no
     O2 -   O_co2 [LENNARD_JONES] p_0/k_B:  61.68048 [K], p_1: 3.04150 [A], shift/k_B:  -0.06539312 [K], tailcorrection: no
     O2 -    N_n2 [LENNARD_JONES] p_0/k_B:  41.63758 [K], p_1: 3.17150 [A], shift/k_B:  -0.05674116 [K], tailcorrection: no
     O2 -   H_com [LENNARD_JONES] p_0/k_B:  42.04044 [K], p_1: 2.99550 [A], shift/k_B:  -0.04067716 [K], tailcorrection: no
     O2 - CH4_sp3 [LENNARD_JONES] p_0/k_B:  87.36729 [K], p_1: 3.37650 [A], shift/k_B:  -0.17334300 [K], tailcorrection: no
     O2 - CH3_sp3 [LENNARD_JONES] p_0/k_B:  72.11840 [K], p_1: 3.39650 [A], shift/k_B:  -0.14824668 [K], tailcorrection: no
     O2 - CH2_sp3 [LENNARD_JONES] p_0/k_B:  51.93119 [K], p_1: 3.49650 [A], shift/k_B:  -0.12703872 [K], tailcorrection: no
     O2 -  CH_sp3 [LENNARD_JONES] p_0/k_B:  28.61269 [K], p_1: 3.85150 [A], shift/k_B:  -0.12497858 [K], tailcorrection: no
     O2 -   C_sp3 [LENNARD_JONES] p_0/k_B:   6.20696 [K], p_1: 4.70650 [A], shift/k_B:  -0.09004433 [K], tailcorrection: no
     O2 -      Ow [LENNARD_JONES] p_0/k_B:  65.70043 [K], p_1: 3.06500 [A], shift/k_B:  -0.07294625 [K], tailcorrection: no
     O2 -      Hw [ZERO_POTENTIAL]
     O2 -      Lw [ZERO_POTENTIAL]
     C1 -      C1 [LENNARD_JONES] p_0/k_B:  47.85600 [K], p_1: 3.47300 [A], shift/k_B:  -0.11243003 [K], tailcorrection: no
     C1 -      C2 [LENNARD_JONES] p_0/k_B:  47.85600 [K], p_1: 3.47300 [A], shift/k_B:  -0.11243003 [K], tailcorrection: no
     C1 -      C3 [LENNARD_JONES] p_0/k_B:  47.85600 [K], p_1: 3.47300 [A], shift/k_B:  -0.11243003 [K], tailcorrection: no
     C1 -      H1 [LENNARD_JONES] p_0/k_B:  19.13245 [K], p_1: 3.15950 [A], shift/k_B:  -0.02548640 [K], tailcorrection: no
     C1 -     Ho1 [HARD_SPHERE] radius:   1.00000
     C1 -   C_co2 [LENNARD_JONES] p_0/k_B:  35.94596 [K], p_1: 3.13650 [A], shift/k_B:  -0.04583063 [K], tailcorrection: no
     C1 -   O_co2 [LENNARD_JONES] p_0/k_B:  61.48678 [K], p_1: 3.26150 [A], shift/k_B:  -0.09910224 [K], tailcorrection: no
     C1 -    N_n2 [LENNARD_JONES] p_0/k_B:  41.50682 [K], p_1: 3.39150 [A], shift/k_B:  -0.08457101 [K], tailcorrection: no
     C1 -   H_com [LENNARD_JONES] p_0/k_B:  41.90841 [K], p_1: 3.21550 [A], shift/k_B:  -0.06203032 [K], tailcorrection: no
     C1 - CH4_sp3 [LENNARD_JONES] p_0/k_B:  87.09292 [K], p_1: 3.59650 [A], shift/k_B:  -0.25230210 [K], tailcorrection: no
     C1 - CH3_sp3 [LENNARD_JONES] p_0/k_B:  71.89192 [K], p_1: 3.61650 [A], shift/k_B:  -0.21530687 [K], tailcorrection: no
     C1 - CH2_sp3 [LENNARD_JONES] p_0/k_B:  51.76810 [K], p_1: 3.71650 [A], shift/k_B:  -0.18258122 [K], tailcorrection: no
     C1 -  CH_sp3 [LENNARD_JONES] p_0/k_B:  28.52283 [K], p_1: 4.07150 [A], shift/k_B:  -0.17379159 [K], tailcorrection: no
     C1 -   C_sp3 [LENNARD_JONES] p_0/k_B:   6.18747 [K], p_1: 4.92650 [A], shift/k_B:  -0.11793217 [K], tailcorrection: no
     C1 -      Ow [LENNARD_JONES] p_0/k_B:  65.49410 [K], p_1: 3.28500 [A], shift/k_B:  -0.11020571 [K], tailcorrection: no
     C1 -      Hw [ZERO_POTENTIAL]
     C1 -      Lw [ZERO_POTENTIAL]
     C2 -      C2 [LENNARD_JONES] p_0/k_B:  47.85600 [K], p_1: 3.47300 [A], shift/k_B:  -0.11243003 [K], tailcorrection: no
     C2 -      C3 [LENNARD_JONES] p_0/k_B:  47.85600 [K], p_1: 3.47300 [A], shift/k_B:  -0.11243003 [K], tailcorrection: no
     C2 -      H1 [LENNARD_JONES] p_0/k_B:  19.13245 [K], p_1: 3.15950 [A], shift/k_B:  -0.02548640 [K], tailcorrection: no
     C2 -     Ho1 [HARD_SPHERE] radius:   1.00000
     C2 -   C_co2 [LENNARD_JONES] p_0/k_B:  35.94596 [K], p_1: 3.13650 [A], shift/k_B:  -0.04583063 [K], tailcorrection: no
     C2 -   O_co2 [LENNARD_JONES] p_0/k_B:  61.48678 [K], p_1: 3.26150 [A], shift/k_B:  -0.09910224 [K], tailcorrection: no
     C2 -    N_n2 [LENNARD_JONES] p_0/k_B:  41.50682 [K], p_1: 3.39150 [A], shift/k_B:  -0.08457101 [K], tailcorrection: no
     C2 -   H_com [LENNARD_JONES] p_0/k_B:  41.90841 [K], p_1: 3.21550 [A], shift/k_B:  -0.06203032 [K], tailcorrection: no
     C2 - CH4_sp3 [LENNARD_JONES] p_0/k_B:  87.09292 [K], p_1: 3.59650 [A], shift/k_B:  -0.25230210 [K], tailcorrection: no
     C2 - CH3_sp3 [LENNARD_JONES] p_0/k_B:  71.89192 [K], p_1: 3.61650 [A], shift/k_B:  -0.21530687 [K], tailcorrection: no
     C2 - CH2_sp3 [LENNARD_JONES] p_0/k_B:  51.76810 [K], p_1: 3.71650 [A], shift/k_B:  -0.18258122 [K], tailcorrection: no
     C2 -  CH_sp3 [LENNARD_JONES] p_0/k_B:  28.52283 [K], p_1: 4.07150 [A], shift/k_B:  -0.17379159 [K], tailcorrection: no
     C2 -   C_sp3 [LENNARD_JONES] p_0/k_B:   6.18747 [K], p_1: 4.92650 [A], shift/k_B:  -0.11793217 [K], tailcorrection: no
     C2 -      Ow [LENNARD_JONES] p_0/k_B:  65.49410 [K], p_1: 3.28500 [A], shift/k_B:  -0.11020571 [K], tailcorrection: no
     C2 -      Hw [ZERO_POTENTIAL]
     C2 -      Lw [ZERO_POTENTIAL]
     C3 -      C3 [LENNARD_JONES] p_0/k_B:  47.85600 [K], p_1: 3.47300 [A], shift/k_B:  -0.11243003 [K], tailcorrection: no
     C3 -      H1 [LENNARD_JONES] p_0/k_B:  19.13245 [K], p_1: 3.15950 [A], shift/k_B:  -0.02548640 [K], tailcorrection: no
     C3 -     Ho1 [HARD_SPHERE] radius:   1.00000
     C3 -   C_co2 [LENNARD_JONES] p_0/k_B:  35.94596 [K], p_1: 3.13650 [A], shift/k_B:  -0.04583063 [K], tailcorrection: no
     C3 -   O_co2 [LENNARD_JONES] p_0/k_B:  61.48678 [K], p_1: 3.26150 [A], shift/k_B:  -0.09910224 [K], tailcorrection: no
     C3 -    N_n2 [LENNARD_JONES] p_0/k_B:  41.50682 [K], p_1: 3.39150 [A], shift/k_B:  -0.08457101 [K], tailcorrection: no
     C3 -   H_com [LENNARD_JONES] p_0/k_B:  41.90841 [K], p_1: 3.21550 [A], shift/k_B:  -0.06203032 [K], tailcorrection: no
     C3 - CH4_sp3 [LENNARD_JONES] p_0/k_B:  87.09292 [K], p_1: 3.59650 [A], shift/k_B:  -0.25230210 [K], tailcorrection: no
     C3 - CH3_sp3 [LENNARD_JONES] p_0/k_B:  71.89192 [K], p_1: 3.61650 [A], shift/k_B:  -0.21530687 [K], tailcorrection: no
     C3 - CH2_sp3 [LENNARD_JONES] p_0/k_B:  51.76810 [K], p_1: 3.71650 [A], shift/k_B:  -0.18258122 [K], tailcorrection: no
     C3 -  CH_sp3 [LENNARD_JONES] p_0/k_B:  28.52283 [K], p_1: 4.07150 [A], shift/k_B:  -0.17379159 [K], tailcorrection: no
     C3 -   C_sp3 [LENNARD_JONES] p_0/k_B:   6.18747 [K], p_1: 4.92650 [A], shift/k_B:  -0.11793217 [K], tailcorrection: no
     C3 -      Ow [LENNARD_JONES] p_0/k_B:  65.49410 [K], p_1: 3.28500 [A], shift/k_B:  -0.11020571 [K], tailcorrection: no
     C3 -      Hw [ZERO_POTENTIAL]
     C3 -      Lw [ZERO_POTENTIAL]
     H1 -      H1 [LENNARD_JONES] p_0/k_B:   7.64900 [K], p_1: 2.84600 [A], shift/k_B:  -0.00544389 [K], tailcorrection: no
     H1 -     Ho1 [HARD_SPHERE] radius:   1.00000
     H1 -   C_co2 [LENNARD_JONES] p_0/k_B:  14.37091 [K], p_1: 2.82300 [A], shift/k_B:  -0.00974201 [K], tailcorrection: no
     H1 -   O_co2 [LENNARD_JONES] p_0/k_B:  24.58192 [K], p_1: 2.94800 [A], shift/k_B:  -0.02161015 [K], tailcorrection: no
     H1 -    N_n2 [LENNARD_JONES] p_0/k_B:  16.59410 [K], p_1: 3.07800 [A], shift/k_B:  -0.01889792 [K], tailcorrection: no
     H1 -   H_com [LENNARD_JONES] p_0/k_B:  16.75465 [K], p_1: 2.90200 [A], shift/k_B:  -0.01340311 [K], tailcorrection: no
     H1 - CH4_sp3 [LENNARD_JONES] p_0/k_B:  34.81905 [K], p_1: 3.28300 [A], shift/k_B:  -0.05837577 [K], tailcorrection: no
     H1 - CH3_sp3 [LENNARD_JONES] p_0/k_B:  28.74182 [K], p_1: 3.30300 [A], shift/k_B:  -0.04997459 [K], tailcorrection: no
     H1 - CH2_sp3 [LENNARD_JONES] p_0/k_B:  20.69647 [K], p_1: 3.40300 [A], shift/k_B:  -0.04303429 [K], tailcorrection: no
     H1 -  CH_sp3 [LENNARD_JONES] p_0/k_B:  11.40320 [K], p_1: 3.75800 [A], shift/k_B:  -0.04298630 [K], tailcorrection: no
     H1 -   C_sp3 [LENNARD_JONES] p_0/k_B:   2.47370 [K], p_1: 4.61300 [A], shift/k_B:  -0.03182855 [K], tailcorrection: no
     H1 -      Ow [LENNARD_JONES] p_0/k_B:  26.18402 [K], p_1: 2.97150 [A], shift/k_B:  -0.02414143 [K], tailcorrection: no
     H1 -      Hw [ZERO_POTENTIAL]
     H1 -      Lw [ZERO_POTENTIAL]
    Ho1 -     Ho1 [HARD_SPHERE] radius:   1.00000
    Ho1 -   C_co2 [HARD_SPHERE] radius:   1.00000
    Ho1 -   O_co2 [HARD_SPHERE] radius:   1.00000
    Ho1 -    N_n2 [HARD_SPHERE] radius:   1.00000
    Ho1 -   N_com [HARD_SPHERE] radius:   1.00000
    Ho1 -    H_h2 [HARD_SPHERE] radius:   1.00000
    Ho1 -   H_com [HARD_SPHERE] radius:   1.00000
    Ho1 - CH4_sp3 [HARD_SPHERE] radius:   1.00000
    Ho1 - CH3_sp3 [HARD_SPHERE] radius:   1.00000
    Ho1 - CH2_sp3 [HARD_SPHERE] radius:   1.00000
    Ho1 -  CH_sp3 [HARD_SPHERE] radius:   1.00000
    Ho1 -   C_sp3 [HARD_SPHERE] radius:   1.00000
    Ho1 -      Ow [HARD_SPHERE] radius:   1.00000
    Ho1 -      Hw [HARD_SPHERE] radius:   1.00000
    Ho1 -      Lw [HARD_SPHERE] radius:   1.00000
  C_co2 -   C_co2 [LENNARD_JONES] p_0/k_B:  27.00000 [K], p_1: 2.80000 [A], shift/k_B:  -0.01742667 [K], tailcorrection: no
  C_co2 -   O_co2 [LENNARD_JONES] p_0/k_B:  46.18441 [K], p_1: 2.92500 [A], shift/k_B:  -0.03873754 [K], tailcorrection: no
  C_co2 -    N_n2 [LENNARD_JONES] p_0/k_B:  31.17691 [K], p_1: 3.05500 [A], shift/k_B:  -0.03394335 [K], tailcorrection: no
  C_co2 -   H_com [LENNARD_JONES] p_0/k_B:  31.47856 [K], p_1: 2.87900 [A], shift/k_B:  -0.02400792 [K], tailcorrection: no
  C_co2 - CH4_sp3 [LENNARD_JONES] p_0/k_B:  65.41789 [K], p_1: 3.26000 [A], shift/k_B:  -0.10514776 [K], tailcorrection: no
  C_co2 - CH3_sp3 [LENNARD_JONES] p_0/k_B:  54.00000 [K], p_1: 3.28000 [A], shift/k_B:  -0.09003849 [K], tailcorrection: no
  C_co2 - CH2_sp3 [LENNARD_JONES] p_0/k_B:  38.88444 [K], p_1: 3.38000 [A], shift/k_B:  -0.07763038 [K], tailcorrection: no
  C_co2 -  CH_sp3 [LENNARD_JONES] p_0/k_B:  21.42429 [K], p_1: 3.73500 [A], shift/k_B:  -0.07784441 [K], tailcorrection: no
  C_co2 -   C_sp3 [LENNARD_JONES] p_0/k_B:   4.64758 [K], p_1: 4.59000 [A], shift/k_B:  -0.05803811 [K], tailcorrection: no
  C_co2 -      Ow [LENNARD_JONES] p_0/k_B:  49.19442 [K], p_1: 2.94850 [A], shift/k_B:  -0.04329120 [K], tailcorrection: no
  C_co2 -      Hw [ZERO_POTENTIAL]
  C_co2 -      Lw [ZERO_POTENTIAL]
  O_co2 -   O_co2 [LENNARD_JONES] p_0/k_B:  79.00000 [K], p_1: 3.05000 [A], shift/k_B:  -0.08516900 [K], tailcorrection: no
  O_co2 -    N_n2 [LENNARD_JONES] p_0/k_B:  53.32917 [K], p_1: 3.18000 [A], shift/k_B:  -0.07384985 [K], tailcorrection: no
  O_co2 -   H_com [LENNARD_JONES] p_0/k_B:  53.84515 [K], p_1: 3.00400 [A], shift/k_B:  -0.05299218 [K], tailcorrection: no
  O_co2 - CH4_sp3 [LENNARD_JONES] p_0/k_B: 111.89951 [K], p_1: 3.38500 [A], shift/k_B:  -0.22538960 [K], tailcorrection: no
  O_co2 - CH3_sp3 [LENNARD_JONES] p_0/k_B:  92.36883 [K], p_1: 3.40500 [A], shift/k_B:  -0.19274091 [K], tailcorrection: no
  O_co2 - CH2_sp3 [LENNARD_JONES] p_0/k_B:  66.51316 [K], p_1: 3.50500 [A], shift/k_B:  -0.16509673 [K], tailcorrection: no
  O_co2 -  CH_sp3 [LENNARD_JONES] p_0/k_B:  36.64696 [K], p_1: 3.86000 [A], shift/k_B:  -0.16220080 [K], tailcorrection: no
  O_co2 -   C_sp3 [LENNARD_JONES] p_0/k_B:   7.94984 [K], p_1: 4.71500 [A], shift/k_B:  -0.11657898 [K], tailcorrection: no
  O_co2 -      Ow [LENNARD_JONES] p_0/k_B:  84.14872 [K], p_1: 3.07350 [A], shift/k_B:  -0.09499412 [K], tailcorrection: no
  O_co2 -      Hw [ZERO_POTENTIAL]
  O_co2 -      Lw [ZERO_POTENTIAL]
   N_n2 -    N_n2 [LENNARD_JONES] p_0/k_B:  36.00000 [K], p_1: 3.31000 [A], shift/k_B:  -0.06339451 [K], tailcorrection: no
   N_n2 -   H_com [LENNARD_JONES] p_0/k_B:  36.34831 [K], p_1: 3.13400 [A], shift/k_B:  -0.04612251 [K], tailcorrection: no
   N_n2 - CH4_sp3 [LENNARD_JONES] p_0/k_B:  75.53807 [K], p_1: 3.51500 [A], shift/k_B:  -0.19072867 [K], tailcorrection: no
   N_n2 - CH3_sp3 [LENNARD_JONES] p_0/k_B:  62.35383 [K], p_1: 3.53500 [A], shift/k_B:  -0.16288768 [K], tailcorrection: no
   N_n2 - CH2_sp3 [LENNARD_JONES] p_0/k_B:  44.89989 [K], p_1: 3.63500 [A], shift/k_B:  -0.13864641 [K], tailcorrection: no
   N_n2 -  CH_sp3 [LENNARD_JONES] p_0/k_B:  24.73863 [K], p_1: 3.99000 [A], shift/k_B:  -0.13353599 [K], tailcorrection: no
   N_n2 -   C_sp3 [LENNARD_JONES] p_0/k_B:   5.36656 [K], p_1: 4.84500 [A], shift/k_B:  -0.09258616 [K], tailcorrection: no
   N_n2 -      Ow [LENNARD_JONES] p_0/k_B:  56.80482 [K], p_1: 3.20350 [A], shift/k_B:  -0.08221459 [K], tailcorrection: no
   N_n2 -      Hw [ZERO_POTENTIAL]
   N_n2 -      Lw [ZERO_POTENTIAL]
  N_com -      Hw [ZERO_POTENTIAL]
  N_com -      Lw [ZERO_POTENTIAL]
   H_h2 -      Hw [ZERO_POTENTIAL]
   H_h2 -      Lw [ZERO_POTENTIAL]
  H_com -   H_com [LENNARD_JONES] p_0/k_B:  36.70000 [K], p_1: 2.95800 [A], shift/k_B:  -0.03292533 [K], tailcorrection: no
  H_com - CH4_sp3 [LENNARD_JONES] p_0/k_B:  76.26893 [K], p_1: 3.33900 [A], shift/k_B:  -0.14151976 [K], tailcorrection: no
  H_com - CH3_sp3 [LENNARD_JONES] p_0/k_B:  62.95713 [K], p_1: 3.35900 [A], shift/k_B:  -0.12107891 [K], tailcorrection: no
  H_com - CH2_sp3 [LENNARD_JONES] p_0/k_B:  45.33431 [K], p_1: 3.45900 [A], shift/k_B:  -0.10395700 [K], tailcorrection: no
  H_com -  CH_sp3 [LENNARD_JONES] p_0/k_B:  24.97799 [K], p_1: 3.81400 [A], shift/k_B:  -0.10288835 [K], tailcorrection: no
  H_com -   C_sp3 [LENNARD_JONES] p_0/k_B:   5.41849 [K], p_1: 4.66900 [A], shift/k_B:  -0.07493495 [K], tailcorrection: no
  H_com -      Ow [LENNARD_JONES] p_0/k_B:  57.35443 [K], p_1: 3.02750 [A], shift/k_B:  -0.05914696 [K], tailcorrection: no
  H_com -      Hw [ZERO_POTENTIAL]
  H_com -      Lw [ZERO_POTENTIAL]
CH4_sp3 - CH4_sp3 [LENNARD_JONES] p_0/k_B: 158.50000 [K], p_1: 3.72000 [A], shift/k_B:  -0.56217796 [K], tailcorrection: no
CH4_sp3 - CH3_sp3 [LENNARD_JONES] p_0/k_B: 130.83577 [K], p_1: 3.74000 [A], shift/k_B:  -0.47921501 [K], tailcorrection: no
CH4_sp3 - CH2_sp3 [LENNARD_JONES] p_0/k_B:  94.21253 [K], p_1: 3.84000 [A], shift/k_B:  -0.40420524 [K], tailcorrection: no
CH4_sp3 -  CH_sp3 [LENNARD_JONES] p_0/k_B:  51.90857 [K], p_1: 4.19500 [A], shift/k_B:  -0.37827707 [K], tailcorrection: no
CH4_sp3 -   C_sp3 [LENNARD_JONES] p_0/k_B:  11.26055 [K], p_1: 5.05000 [A], shift/k_B:  -0.24880626 [K], tailcorrection: no
CH4_sp3 -      Ow [LENNARD_JONES] p_0/k_B: 119.19241 [K], p_1: 3.40850 [A], shift/k_B:  -0.25024924 [K], tailcorrection: no
CH4_sp3 -      Hw [ZERO_POTENTIAL]
CH4_sp3 -      Lw [ZERO_POTENTIAL]
CH3_sp3 - CH3_sp3 [LENNARD_JONES] p_0/k_B: 108.00000 [K], p_1: 3.76000 [A], shift/k_B:  -0.40842485 [K], tailcorrection: no
CH3_sp3 - CH2_sp3 [LENNARD_JONES] p_0/k_B:  77.76889 [K], p_1: 3.86000 [A], shift/k_B:  -0.34420794 [K], tailcorrection: no
CH3_sp3 -  CH_sp3 [LENNARD_JONES] p_0/k_B:  42.84857 [K], p_1: 4.21500 [A], shift/k_B:  -0.32127575 [K], tailcorrection: no
CH3_sp3 -   C_sp3 [LENNARD_JONES] p_0/k_B:   9.29516 [K], p_1: 5.07000 [A], shift/k_B:  -0.21028090 [K], tailcorrection: no
CH3_sp3 -      Ow [LENNARD_JONES] p_0/k_B:  98.38884 [K], p_1: 3.42850 [A], shift/k_B:  -0.21394739 [K], tailcorrection: no
CH3_sp3 -      Hw [ZERO_POTENTIAL]
CH3_sp3 -      Lw [ZERO_POTENTIAL]
CH2_sp3 - CH2_sp3 [LENNARD_JONES] p_0/k_B:  56.00000 [K], p_1: 3.96000 [A], shift/k_B:  -0.28891522 [K], tailcorrection: no
CH2_sp3 -  CH_sp3 [LENNARD_JONES] p_0/k_B:  30.85450 [K], p_1: 4.31500 [A], shift/k_B:  -0.26621710 [K], tailcorrection: no
CH2_sp3 -   C_sp3 [LENNARD_JONES] p_0/k_B:   6.69328 [K], p_1: 5.17000 [A], shift/k_B:  -0.17012512 [K], tailcorrection: no
CH2_sp3 -      Ow [LENNARD_JONES] p_0/k_B:  70.84806 [K], p_1: 3.52850 [A], shift/k_B:  -0.18304608 [K], tailcorrection: no
CH2_sp3 -      Hw [ZERO_POTENTIAL]
CH2_sp3 -      Lw [ZERO_POTENTIAL]
 CH_sp3 -  CH_sp3 [LENNARD_JONES] p_0/k_B:  17.00000 [K], p_1: 4.67000 [A], shift/k_B:  -0.23540268 [K], tailcorrection: no
 CH_sp3 -   C_sp3 [LENNARD_JONES] p_0/k_B:   3.68782 [K], p_1: 5.52500 [A], shift/k_B:  -0.13918063 [K], tailcorrection: no
 CH_sp3 -      Ow [LENNARD_JONES] p_0/k_B:  39.03538 [K], p_1: 3.88350 [A], shift/k_B:  -0.17917260 [K], tailcorrection: no
 CH_sp3 -      Hw [ZERO_POTENTIAL]
 CH_sp3 -      Lw [ZERO_POTENTIAL]
  C_sp3 -   C_sp3 [LENNARD_JONES] p_0/k_B:   0.80000 [K], p_1: 6.38000 [A], shift/k_B:  -0.07064236 [K], tailcorrection: no
  C_sp3 -      Ow [LENNARD_JONES] p_0/k_B:   8.46796 [K], p_1: 4.73850 [A], shift/k_B:  -0.12792259 [K], tailcorrection: no
  C_sp3 -      Hw [ZERO_POTENTIAL]
  C_sp3 -      Lw [ZERO_POTENTIAL]
     Ow -      Ow [LENNARD_JONES] p_0/k_B:  89.63300 [K], p_1: 3.09700 [A], shift/k_B:  -0.10591545 [K], tailcorrection: no
     Ow -      Hw [ZERO_POTENTIAL]
     Ow -      Lw [ZERO_POTENTIAL]
     Hw -      Hw [ZERO_POTENTIAL]
     Hw -      Lw [ZERO_POTENTIAL]
     Lw -      Lw [ZERO_POTENTIAL]


MoleculeDefinitions:
===========================================================================
Component 0 [Tip5p] (Adsorbate molecule)

	MoleculeDefinitions: Local
	Component contains (at least some) atoms which are charged
	Component contains no atoms with point dipoles (polarization)
	Component has a net charge of 0.000000

	Ideal chain Rosenbluth weight: 1
	Ideal chain total energy: 0.000000

	Critical temparure [K]: 304.128200
	Critical pressure [Pa]: 7377300.000000
	Acentric factor [-]: 0.223940

	RXMC partition factor [-]: 0.000000

	Vapour=stable, Liquid=metastable

	MolFraction:           1.0000000000 [-]
	Compressibility:       0.0000000000 [-]

	Density of the bulk fluid phase:       0.0000000000 [kg/m^3]


	Amount of excess molecules:       0.0000000000 [-]

	Conversion factor molecules/unit cell -> mol/kg:       0.0000000000 [-]
	Conversion factor molecules/unit cell -> gr/gr:       0.0000000000 [-]
	Conversion factor molecules/unit cell -> cm^3 STP/gr:       0.0000000000 [-]
	Conversion factor molecules/unit cell -> cm^3 STP/cm^3:       0.0000000000 [-]
	Conversion factor mol/kg -> cm^3 STP/gr:       0.0000000000 [-]
	Conversion factor mol/kg -> cm^3 STP/cm^3:       0.0000000000 [-]

	Partial pressure:         0.00000000000000 [Pa]
	                          0.00000000000000 [Torr]
	                          0.00000000000000 [bar]
	                          0.00000000000000 [atm]

	Fugacity coefficient:      -1.0000000000 [-]

	Partial fugacity:        -0.00000000000000 [Pa]
	                         -0.00000000000000 [Torr]
	                         -0.00000000000000 [bar]
	                         -0.00000000000000 [atm]

	Molecule contains 5 number of atoms
		atom:    0  is of type:   21 [        Ow] (group: 0)
		atom:    1  is of type:   22 [        Hw] (group: 0)
		atom:    2  is of type:   22 [        Hw] (group: 0)
		atom:    3  is of type:   23 [        Lw] (group: 0)
		atom:    4  is of type:   23 [        Lw] (group: 0)

	Molecule contains 0 chirality centers

	Molecule contains 1 number of groups

		group: 0 containing: 5 elements
		-------------------------------------------------
		the group is rigid and nonlinear
		Mass: 18.015400 [a.u.]
		Mass: 20.129530 [kg/m^3]

		Rotational Degrees of freedom: 3
		Diagonalized inertia vector:       1.7696847227
		                                   1.1551151767
		                                   0.6145695460
		number of atoms: 5
			element: 0 atom: 0 [        Ow] Charge:  0.000000 Anisotropy: 0.000000 Position:  0.000000  0.065563  0.000000 Connectivity: 4 (1 2 3 4 )
			element: 1 atom: 1 [        Hw] Charge:  0.241000 Anisotropy: 0.000000 Position:  0.000000 -0.520320 -0.756950 Connectivity: 1 (0 )
			element: 2 atom: 2 [        Hw] Charge:  0.241000 Anisotropy: 0.000000 Position:  0.000000 -0.520320  0.756950 Connectivity: 1 (0 )
			element: 3 atom: 3 [        Lw] Charge: -0.241000 Anisotropy: 0.000000 Position: -0.571543  0.469714  0.000000 Connectivity: 1 (0 )
			element: 4 atom: 4 [        Lw] Charge: -0.241000 Anisotropy: 0.000000 Position:  0.571543  0.469714  0.000000 Connectivity: 1 (0 )
		number of permanent dipoles: 0
		number of polarizabilities: 0

		Dipole:           2.2920719009 [D]
		Quadrupole:      -1.4775242196      -0.1691325704       1.6466567901 [D Angstrom]
		Quadrupole tensor [D Angstrom]
				      -1.4775242196       0.0000000000       0.0000000000
				       0.0000000000      -0.1691325704       0.0000000000
				       0.0000000000       0.0000000000       1.6466567901

	Starting bead for growth               : 0

	Degrees of freedom                     : 0
	Translational degrees of freedom       : 0
	Rotational degrees of freedom          : 0
	Vibrational degrees of freedom         : 0
	Constraint degrees of freedom          : 0

	Number of atoms                        : 5

	Number of constraint bonds             : 0
	Number of constraint bends             : 0
	Number of constraint inversion bends   : 0
	Number of constraint torsions          : 0
	Number of constraint improper torsions : 0
	Number of constraint improper torsions : 0

	Number of bonds                        : 4
	Number of Urey-Bradleys                : 0
	Number of bends                        : 0
	Number of inversion bends              : 0
	Number of torsions                     : 0
	Number of improper torsions            : 0
	Number of improper torsions            : 0

	Number of bond/bond cross terms        : 0
	Number of bond/bend cross terms        : 0
	Number of bend/bend cross terms        : 0
	Number of stretch/torsion cross terms  : 0
	Number of bend/torsion cross terms     : 0

	Number of charges                      : 4
	Number of bond-dipoles                 : 0

	Number of intra Van der Waals                             : 0
	Number of intra charge-charge Coulomb                     : 0
	Number of intra charge-bonddipole Coulomb                 : 0
	Number of intra bonddipole-bonddipole Coulomb             : 0

	Number of excluded intra charge-charge Coulomb                     : 6
	Number of excluded intra charge-bonddipole Coulomb                 : 0
	Number of excluded intra bonddipole-bonddipole Coulomb             : 0

	Number of cbmc-config moves                               : 0

	Particle Moves:             
		ProbabilityTranslationMove:                  33.333333
			TranslationDirection:      XYZ
		Percentage of random translation moves:            0.000000
		Percentage of rotation moves:                      33.333333
		Percentage of random rotation moves:               0.000000
		Percentage of partial reinsertion moves:           0.000000
		Percentage of reinsertion moves:                   33.333333
		Percentage of reinsertion-in-place moves:          0.000000
		Percentage of reinsertion-in-plane moves:          0.000000
		Percentage of identity-change moves:               0.000000
		Percentage of swap (insert/delete) moves:          0.000000
		Percentage of CF swap lambda moves:                0.000000
		Percentage of CB/CFMC swap lambda moves:           0.000000
		Percentage of Widom insertion moves:               0.000000
		Percentage of surface-area moves:                  0.000000
		Percentage of Gibbs particle-transfer moves:       0.000000
		Percentage of Gibbs identity-change moves:         0.000000
		Percentage of CF Gibbs lambda-transfer moves:      0.000000
		Percentage of CB/CFMC Gibbs lambda-transfer moves: 0.000000

	System Moves:
		Percentage of parallel-tempering moves:            0.000000
		Percentage of hyper-parallel-tempering moves:      0.000000
		Percentage of parallel-mol-fraction moves:         0.000000
			   Component A: 0 B: 1
		Percentage of chiral inversion moves:              0.000000
		Percentage of Hybrid-NVE moves:                    0.000000
		Percentage of Hybrid-NPH moves:                    0.000000
		Percentage of Hybrid-NPHPR moves:                  0.000000
		Percentage of volume-change moves:                 0.000000
		Percentage of box-shape-change moves:              0.000000
		Percentage of Gibbs volume-change moves:           0.000000
		Percentage of framework-change moves:              0.000000
		Percentage of framework-shift moves:               0.000000
		Percentage of reactive MC moves:                   0.000000

	Moves are restricted: No
	No biased sampling used for this component

	Number of Bonds: 4
	--------------------------------------------
	Bond interaction 0: A=0 B=1 Type:RIGID_BOND
		r_0=0.9572000000       [A]
	Bond interaction 1: A=0 B=2 Type:RIGID_BOND
		r_0=0.9572000000       [A]
	Bond interaction 2: A=0 B=3 Type:RIGID_BOND
		r_0=0.7000000000       [A]
	Bond interaction 3: A=0 B=4 Type:RIGID_BOND
		r_0=0.7000000000       [A]


	number of identity-config changes: 1
	--------------------------------------------
	nr fixed 1: 0 

	Number of pockets blocked in a unitcell: 0
		Pockets are NOT blocked for this component



Framework Status
===========================================================================
Lowenstein's rule obeyed by framework
	Framework is modelled as: flexible using the model of Local
	==================================================================================

	Number of Bonds definitions: 8
	--------------------------------------------
	Bond interaction between [C3-C3] using bond-type: HARMONIC_BOND (8 bonds)
	  args: 2   arg[0]=482898.784120 arg[1]=1.340000 
	Bond interaction between [C2-C3] using bond-type: HARMONIC_BOND (16 bonds)
	  args: 2   arg[0]=482898.784120 arg[1]=1.340000 
	Bond interaction between [C1-C2] using bond-type: HARMONIC_BOND (8 bonds)
	  args: 2   arg[0]=354048.399828 arg[1]=1.470000 
	Bond interaction between [O2-C1] using bond-type: HARMONIC_BOND (16 bonds)
	  args: 2   arg[0]=543261.056965 arg[1]=1.250000 
	Bond interaction between [C3-H1] using bond-type: HARMONIC_BOND (16 bonds)
	  args: 2   arg[0]=342810.664038 arg[1]=1.080000 
	Bond interaction between [Cr1-O1] using bond-type: HARMONIC_BOND (8 bonds)
	  args: 2   arg[0]=352191.034363 arg[1]=1.950000 
	Bond interaction between [Cr1-O2] using bond-type: HARMONIC_BOND (16 bonds)
	  args: 2   arg[0]=352191.034363 arg[1]=1.950000 
	Bond interaction between [O1-Ho1] using bond-type: HARMONIC_BOND (4 bonds)
	  args: 2   arg[0]=544114.625400 arg[1]=0.949000 

	Number of Bend definitions: 8
	--------------------------------------------
	Bend interaction between [C3-C2-C3] using bend-type: HARMONIC_BEND (8 bends)
	  args: 2   arg[0]=90601.554921 arg[1]=120.000000 
	Bend interaction between [C3-C3-C2] using bend-type: HARMONIC_BEND (16 bends)
	  args: 2   arg[0]=90601.554921 arg[1]=120.000000 
	Bend interaction between [C2-C3-H1] using bend-type: HARMONIC_BEND (16 bends)
	  args: 2   arg[0]=37250.530613 arg[1]=120.000000 
	Bend interaction between [C3-C3-H1] using bend-type: HARMONIC_BEND (16 bends)
	  args: 2   arg[0]=37250.530613 arg[1]=120.000000 
	Bend interaction between [C1-C2-C3] using bend-type: HARMONIC_BEND (16 bends)
	  args: 2   arg[0]=34917.293274 arg[1]=120.000000 
	Bend interaction between [O2-C1-O2] using bend-type: HARMONIC_BEND (8 bends)
	  args: 2   arg[0]=146030.436333 arg[1]=123.000000 
	Bend interaction between [O2-C1-C2] using bend-type: HARMONIC_BEND (16 bends)
	  args: 2   arg[0]=68464.825523 arg[1]=120.000000 
	Bend interaction between [C1-O2-Cr1] using bend-type: HARMONIC_BEND (16 bends)
	  args: 2   arg[0]=13929.771924 arg[1]=140.000000 

	Number of Torsion definitions: 9
	--------------------------------------------
	Torsion interaction between [O2-C1-C2-C3] using torsion-type:TRAPPE_DIHEDRAL (32 torsions)
	  args: 4   arg[0]=0.000000     arg[1]=0.000000     arg[2]=1258.322707  arg[3]=0.000000      VDW-scaling: 0.000000      q-scaling: 0.000000    
	Torsion interaction between [C1-C2-C3-H1] using torsion-type:TRAPPE_DIHEDRAL (16 torsions)
	  args: 4   arg[0]=0.000000     arg[1]=0.000000     arg[2]=1510.103190  arg[3]=0.000000      VDW-scaling: 0.000000      q-scaling: 0.000000    
	Torsion interaction between [C1-C2-C3-C3] using torsion-type:TRAPPE_DIHEDRAL (16 torsions)
	  args: 4   arg[0]=0.000000     arg[1]=0.000000     arg[2]=1510.103190  arg[3]=0.000000      VDW-scaling: 0.000000      q-scaling: 0.000000    
	Torsion interaction between [H1-C3-C3-H1] using torsion-type:TRAPPE_DIHEDRAL (8 torsions)
	  args: 4   arg[0]=0.000000     arg[1]=0.000000     arg[2]=1510.103190  arg[3]=0.000000      VDW-scaling: 0.000000      q-scaling: 0.000000    
	Torsion interaction between [C2-C3-C3-H1] using torsion-type:TRAPPE_DIHEDRAL (16 torsions)
	  args: 4   arg[0]=0.000000     arg[1]=0.000000     arg[2]=1510.103190  arg[3]=0.000000      VDW-scaling: 0.000000      q-scaling: 0.000000    
	Torsion interaction between [C2-C3-C3-C2] using torsion-type:TRAPPE_DIHEDRAL (8 torsions)
	  args: 4   arg[0]=0.000000     arg[1]=0.000000     arg[2]=1510.103190  arg[3]=0.000000      VDW-scaling: 0.000000      q-scaling: 0.000000    
	Torsion interaction between [H1-C3-C2-C3] using torsion-type:TRAPPE_DIHEDRAL (16 torsions)
	  args: 4   arg[0]=0.000000     arg[1]=0.000000     arg[2]=1510.103190  arg[3]=0.000000      VDW-scaling: 0.000000      q-scaling: 0.000000    
	Torsion interaction between [C3-C2-C3-C3] using torsion-type:TRAPPE_DIHEDRAL (16 torsions)
	  args: 4   arg[0]=0.000000     arg[1]=0.000000     arg[2]=1510.103190  arg[3]=0.000000      VDW-scaling: 0.000000      q-scaling: 0.000000    
	Torsion interaction between [C2-C1-O2-Cr1] using torsion-type:TRAPPE_DIHEDRAL (16 torsions)
	  args: 4   arg[0]=0.000000     arg[1]=0.000000     arg[2]=1973.383755  arg[3]=0.000000      VDW-scaling: 0.000000      q-scaling: 0.000000    


	Number of core/shells:                           0
	Number of bonds:                                 92
	Number of bond-dipoles:                          0
	Number of bends:                                 112
	Number of Urey-Bradleys:                         0
	Number of Inversion bends:                       0
	Number of Torsions:                              144
	Number of Improper Torsions:                     0
	Number of Out-of-planes:                         0
	Number of bond-bond cross terms:                 0
	Number of bond-bend cross terms:                 0
	Number of bend-bend cross terms:                 0
	Number of stretch-torsion cross terms:           0
	Number of bend-torsion cross terms:              0

	Number of charges:                               76
	Number of bonddipoles:                           0

	Number of Intra VDW:                             430006
	Number of Intra Coulomb charge-charge:           430006
	Number of Intra Coulomb charge-bonddipole:       0
	Number of Intra Coulomb bonddipoles:             0
	Number of excluded Intra VDW:                    268
	Number of excluded intra charge-charge:          204
	Number of excluded intra charge-bonddipole:      0
	Number of excluded intra bonddipole-bonddipole:  0


	Number of 1-2 intra-framework pairs: 92
	Number of 1-3 intra-framework pairs: 184
	Number of 1-4 intra-framework pairs: 320
	Number of 1-2,1-3 intra-framework pairs: 276
	Number of 1-2,1-3,1-4 intra-framework pairs: 596
	Bond interactions are removed (excluded from VDW and Coulomb interactions)
	Bend interactions are removed (excluded from VDW and Coulomb interactions)
	Torsion interactions are *included* in the VDW and Coulomb interactions
	Remove12NeighboursFromVDWInteraction no
	Remove13NeighboursFromVDWInteraction no
	Remove14NeighboursFromVDWInteraction no
	Remove12NeighboursFromChargeChargeInteraction no
	Remove13NeighboursFromChargeChargeInteraction no
	Remove14NeighboursFromChargeChargeInteraction no
	Remove11NeighboursFromChargeBondDipoleInteraction no
	Remove12NeighboursFromChargeBondDipoleInteraction no
	Remove13NeighboursFromChargeBondDipoleInteraction no
	Remove14NeighboursFromChargeBondDipoleInteraction no
	Remove12NeighboursFromBondDipoleBondDipoleInteraction no
	Remove13NeighboursFromBondDipoleBondDipoleInteraction no
	Remove14NeighboursFromBondDipoleBondDipoleInteraction no
	InternalFrameworkLennardJonesInteractions yes


System Properties
===========================================================================
Unit cell size: 16.733000 13.038000 6.812000
Cell angles (radians)  alpha: 1.570796 beta: 1.570796 gamma: 1.570796
Cell angles (degrees)  alpha: 90.000000 beta: 90.000000 gamma: 90.000000
Number of unitcells [a]: 1
Number of unitcells [b]: 1
Number of unitcells [c]: 1

TRICLINIC Boundary conditions: alpha!=90 or beta!=90 or gamma!=90

Cartesian axis A is collinear with crystallographic axis a
Cartesian axis B is collinear with (axb)xA
Cartesian axis C is collinear with (axb)

lengths of cell vectors:
 16.73300  13.03800   6.81200
cosines of cell angles:
  0.00000   0.00000   0.00000
perpendicular cell widths:
 16.73300  13.03800   6.81200
volume of the cell:  1486.138985448000 (A^3)

Orthogonalization matrix Box
Transforms fractional coordinates abc into orthonormal Cartesian coordinates xyz
Deorthogonalization matrix InverseBox
Transforms orthonormal Cartesian coordinates xyz into fractional coordinates xyz

Box[0]:
	   16.733000000000     0.000000000000     0.000000000000
	    0.000000000000    13.038000000000     0.000000000000
	    0.000000000000     0.000000000000     6.812000000000

Inverse box[0]:
	    0.059762146656    -0.000000000000    -0.000000000000
	    0.000000000000     0.076698880196    -0.000000000000
	    0.000000000000     0.000000000000     0.146799765120


Unitcell box[0]:
	   16.733000000000     0.000000000000     0.000000000000
	    0.000000000000    13.038000000000     0.000000000000
	    0.000000000000     0.000000000000     6.812000000000

Unitcell inverse box[0]:
	    0.059762146656    -0.000000000000    -0.000000000000
	    0.000000000000     0.076698880196    -0.000000000000
	    0.000000000000     0.000000000000     0.146799765120

lengths of cell vectors (inverse box):
  0.05976   0.07670   0.14680
cosines of cell angles (inverse box):
 -0.00000  -0.00000  -0.00000
perpendicular cell widths (inverse):
  0.05976   0.07670   0.14680
volume of the cell:  1486.138985448000 (A^3)

Number of Replica Cells: 3 5 5
Replica Box:
	   50.199000000000     0.000000000000     0.000000000000
	    0.000000000000    65.190000000000     0.000000000000
	    0.000000000000     0.000000000000    34.060000000000

Shift of the Replica cells:
	[cell:  0]     0.000000000000     0.000000000000     0.000000000000
	[cell:  1]     0.000000000000     0.000000000000     6.812000000000
	[cell:  2]     0.000000000000     0.000000000000    13.624000000000
	[cell:  3]     0.000000000000     0.000000000000    20.436000000000
	[cell:  4]     0.000000000000     0.000000000000    27.248000000000
	[cell:  5]     0.000000000000    13.038000000000     0.000000000000
	[cell:  6]     0.000000000000    13.038000000000     6.812000000000
	[cell:  7]     0.000000000000    13.038000000000    13.624000000000
	[cell:  8]     0.000000000000    13.038000000000    20.436000000000
	[cell:  9]     0.000000000000    13.038000000000    27.248000000000
	[cell: 10]     0.000000000000    26.076000000000     0.000000000000
	[cell: 11]     0.000000000000    26.076000000000     6.812000000000
	[cell: 12]     0.000000000000    26.076000000000    13.624000000000
	[cell: 13]     0.000000000000    26.076000000000    20.436000000000
	[cell: 14]     0.000000000000    26.076000000000    27.248000000000
	[cell: 15]     0.000000000000    39.114000000000     0.000000000000
	[cell: 16]     0.000000000000    39.114000000000     6.812000000000
	[cell: 17]     0.000000000000    39.114000000000    13.624000000000
	[cell: 18]     0.000000000000    39.114000000000    20.436000000000
	[cell: 19]     0.000000000000    39.114000000000    27.248000000000
	[cell: 20]     0.000000000000    52.152000000000     0.000000000000
	[cell: 21]     0.000000000000    52.152000000000     6.812000000000
	[cell: 22]     0.000000000000    52.152000000000    13.624000000000
	[cell: 23]     0.000000000000    52.152000000000    20.436000000000
	[cell: 24]     0.000000000000    52.152000000000    27.248000000000
	[cell: 25]    16.733000000000     0.000000000000     0.000000000000
	[cell: 26]    16.733000000000     0.000000000000     6.812000000000
	[cell: 27]    16.733000000000     0.000000000000    13.624000000000
	[cell: 28]    16.733000000000     0.000000000000    20.436000000000
	[cell: 29]    16.733000000000     0.000000000000    27.248000000000
	[cell: 30]    16.733000000000    13.038000000000     0.000000000000
	[cell: 31]    16.733000000000    13.038000000000     6.812000000000
	[cell: 32]    16.733000000000    13.038000000000    13.624000000000
	[cell: 33]    16.733000000000    13.038000000000    20.436000000000
	[cell: 34]    16.733000000000    13.038000000000    27.248000000000
	[cell: 35]    16.733000000000    26.076000000000     0.000000000000
	[cell: 36]    16.733000000000    26.076000000000     6.812000000000
	[cell: 37]    16.733000000000    26.076000000000    13.624000000000
	[cell: 38]    16.733000000000    26.076000000000    20.436000000000
	[cell: 39]    16.733000000000    26.076000000000    27.248000000000
	[cell: 40]    16.733000000000    39.114000000000     0.000000000000
	[cell: 41]    16.733000000000    39.114000000000     6.812000000000
	[cell: 42]    16.733000000000    39.114000000000    13.624000000000
	[cell: 43]    16.733000000000    39.114000000000    20.436000000000
	[cell: 44]    16.733000000000    39.114000000000    27.248000000000
	[cell: 45]    16.733000000000    52.152000000000     0.000000000000
	[cell: 46]    16.733000000000    52.152000000000     6.812000000000
	[cell: 47]    16.733000000000    52.152000000000    13.624000000000
	[cell: 48]    16.733000000000    52.152000000000    20.436000000000
	[cell: 49]    16.733000000000    52.152000000000    27.248000000000
	[cell: 50]    33.466000000000     0.000000000000     0.000000000000
	[cell: 51]    33.466000000000     0.000000000000     6.812000000000
	[cell: 52]    33.466000000000     0.000000000000    13.624000000000
	[cell: 53]    33.466000000000     0.000000000000    20.436000000000
	[cell: 54]    33.466000000000     0.000000000000    27.248000000000
	[cell: 55]    33.466000000000    13.038000000000     0.000000000000
	[cell: 56]    33.466000000000    13.038000000000     6.812000000000
	[cell: 57]    33.466000000000    13.038000000000    13.624000000000
	[cell: 58]    33.466000000000    13.038000000000    20.436000000000
	[cell: 59]    33.466000000000    13.038000000000    27.248000000000
	[cell: 60]    33.466000000000    26.076000000000     0.000000000000
	[cell: 61]    33.466000000000    26.076000000000     6.812000000000
	[cell: 62]    33.466000000000    26.076000000000    13.624000000000
	[cell: 63]    33.466000000000    26.076000000000    20.436000000000
	[cell: 64]    33.466000000000    26.076000000000    27.248000000000
	[cell: 65]    33.466000000000    39.114000000000     0.000000000000
	[cell: 66]    33.466000000000    39.114000000000     6.812000000000
	[cell: 67]    33.466000000000    39.114000000000    13.624000000000
	[cell: 68]    33.466000000000    39.114000000000    20.436000000000
	[cell: 69]    33.466000000000    39.114000000000    27.248000000000
	[cell: 70]    33.466000000000    52.152000000000     0.000000000000
	[cell: 71]    33.466000000000    52.152000000000     6.812000000000
	[cell: 72]    33.466000000000    52.152000000000    13.624000000000
	[cell: 73]    33.466000000000    52.152000000000    20.436000000000
	[cell: 74]    33.466000000000    52.152000000000    27.248000000000

Framework is simulated as 'flexible'
Number of framework atoms: 76
Number of framework atoms in the unit cell: 76
Framework Mass:   932.473600000001 [g/mol]
Framework Density:  1041.900212298305 [kg/m^3]    0.9597848125917 [cm^3/g]
Helium void fraction:    1.00000000
Available pore volume: 1486.13898545 [A^3]    0.95978481 [cm^3/g]
Conversion factor from molecule/unit cell -> kmol/m^3: 1.11735, kmol/m^3 accesible pore volume: 1.11735

Number Of Frameworks (per system): 1
----------------------------------------------------------------------
Framework name: MIL-53lp
Citation:
	author name:        'C. Serre, F. Millange, C. Thouvenot, M. Nogues, G. Marsolier, D. Louer, and G. Ferey'
	title:              'Very large breathing effect in the first nanoporous chromium(III)-based solids: MIL-53 or Cr-III(OH).{O2C-C6H4-CO2}.{HO2C-C6H4-CO2H}(x).H2Oy'
	journal abbrev.:    'J. Am. Chem. Soc.'
	journal volume:     124
	first page:         13519
	last page:          13526
	year:               2002
Space group: 74
	Identifier: 347
	short international Hermann-Mauguin symbol: I m c m
	long international Hermann-Mauguin symbol: I 21/m 21/c 21/m
	Hall symbol: -I 2 2a
	Number of lattice translations: 2 [ (0,0,0) (0.5,0.5,0.5) ]
	acentric/centric: acentric
	chiral: yes
	enantiomorphic: no
	number of operators: 16
		'x,y,z'
		'-x+1/2,y,-z'
		'x+1/2,-y,-z'
		'-x,-y,z'
		'-x,-y,-z'
		'x+1/2,-y,z'
		'-x+1/2,y,z'
		'x,y,-z'
		'x+1/2,y+1/2,z+1/2'
		'-x,y+1/2,-z+1/2'
		'x,-y+1/2,-z+1/2'
		'-x+1/2,-y+1/2,z+1/2'
		'-x+1/2,-y+1/2,-z+1/2'
		'x,-y+1/2,z+1/2'
		'-x,y+1/2,z+1/2'
		'x+1/2,y+1/2,-z+1/2'
Framework is simulated as 'flexible'
Shift: 0.000000 0.000000 0.000000
Number of framework atoms: 76
Number of asymmetric atoms: 8
Number of free framework atoms: 76
Number of fixed framework atoms: 0
Number of framework atoms in the unit cell: 76
Framework Mass:   932.473600000001 [g/mol]
Framework Density:  1041.900212298305 [kg/m^3]
Framework has net charge: -0.000000
         largest charge : 1.031000
         smallest charge: -0.637000


Current Atom Status
===========================================================================
Number of framework atoms        : 76
Number of cations molecules      : 0
Number of adsorbate molecules    : 2
Component    0 :    2 molecules
Pseudo Atoms    0 [    UNIT]:    0 atoms
Pseudo Atoms    1 [      He]:    0 atoms
Pseudo Atoms    2 [     Cr1]:    4 atoms
Pseudo Atoms    3 [      O1]:    4 atoms
Pseudo Atoms    4 [      O2]:   16 atoms
Pseudo Atoms    5 [      C1]:    8 atoms
Pseudo Atoms    6 [      C2]:    8 atoms
Pseudo Atoms    7 [      C3]:   16 atoms
Pseudo Atoms    8 [      H1]:   16 atoms
Pseudo Atoms    9 [     Ho1]:    4 atoms
Pseudo Atoms   10 [   C_co2]:    0 atoms
Pseudo Atoms   11 [   O_co2]:    0 atoms
Pseudo Atoms   12 [    N_n2]:    0 atoms
Pseudo Atoms   13 [   N_com]:    0 atoms
Pseudo Atoms   14 [    H_h2]:    0 atoms
Pseudo Atoms   15 [   H_com]:    0 atoms
Pseudo Atoms   16 [ CH4_sp3]:    0 atoms
Pseudo Atoms   17 [ CH3_sp3]:    0 atoms
Pseudo Atoms   18 [ CH2_sp3]:    0 atoms
Pseudo Atoms   19 [  CH_sp3]:    0 atoms
Pseudo Atoms   20 [   C_sp3]:    0 atoms
Pseudo Atoms   21 [      Ow]:    2 atoms
Pseudo Atoms   22 [      Hw]:    4 atoms
Pseudo Atoms   23 [      Lw]:    4 atoms


Current (initial full energy) Energy Status
===========================================================================

Internal energy:
Host stretch energy:                                        69471.32776290
Host UreyBradley energy:                                        0.00000000
Host bend energy:                                            1776.99934644
Host inversion-bend energy:                                     0.00000000
Host torsion energy:                                          448.11893761
Host improper torsion energy:                                   0.00000000
Host out-of-plane energy:                                       0.00000000
Host stretch/stretch energy:                                    0.00000000
Host bend/bend energy:                                          0.00000000
Host stretch/bend energy:                                       0.00000000
Host stretch/torsion energy:                                    0.00000000
Host bend/torsion energy:                                       0.00000000

Adsorbate stretch energy:                                       0.00000000
Adsorbate UreyBradley energy:                                   0.00000000
Adsorbate bend energy:                                          0.00000000
Adsorbate inversion-bend energy:                                0.00000000
Adsorbate torsion energy:                                       0.00000000
Adsorbate improper torsion energy:                              0.00000000
Adsorbate out-of-plane energy:                                  0.00000000
Adsorbate stretch/stretch energy:                               0.00000000
Adsorbate bend/bend energy:                                     0.00000000
Adsorbate stretch/bend energy:                                  0.00000000
Adsorbate stretch/torsion energy:                               0.00000000
Adsorbate bend/torsion energy:                                  0.00000000
Adsorbate intra VDW energy:                                     0.00000000
Adsorbate intra charge-charge Coulomb energy:                   0.00000000
Adsorbate intra charge-bonddipole Coulomb energy:               0.00000000
Adsorbate intra bonddipole-bonddipole Coulomb energy:           0.00000000

Cation stretch energy:                                          0.00000000
Cation UreyBradley energy:                                      0.00000000
Cation bend energy:                                             0.00000000
Cation inversion-bend energy:                                   0.00000000
Cation torsion energy:                                          0.00000000
Cation improper torsion energy:                                 0.00000000
Cation out-of-plane energy:                                     0.00000000
Cation stretch/stretch energy:                                  0.00000000
Cation bend/bend energy:                                        0.00000000
Cation stretch/bend energy:                                     0.00000000
Cation stretch/torsion energy:                                  0.00000000
Cation bend/torsion energy:                                     0.00000000
Cation intra VDW energy:                                        0.00000000
Cation intra charge-charge Coulomb energy:                      0.00000000
Cation intra charge-bonddipole Coulomb energy:                  0.00000000
Cation intra bonddipole-bonddipole Coulomb energy:              0.00000000

Host/Host energy:                                        296377.49362327
	Host/Host VDW energy:                                     59993.40251999
	Host/Host Coulomb energy:                                236384.09110328
	Host/Host charge-charge Real energy:                      67516.47283740
	Host/Host charge-charge Fourier energy:                  168867.61826587
	Host/Host charge-bonddipole Real energy:                      0.00000000
	Host/Host charge-bonddipole Fourier energy:                   0.00000000
	Host/Host bondipole-bonddipole Real energy:                   0.00000000
	Host/Host bondipole-bonddipole Fourier energy:                0.00000000

Host/Adsorbate energy:                                               nan
	Host/Adsorbate VDW energy:                                -1557.60551594
	Host/Adsorbate Coulomb energy:                                       nan
	Host/Adsorbate charge-charge Real energy:                            nan
	Host/Adsorbate charge-charge Fourier energy:                179.90969473
	Host/Adsorbate charge-bonddipole Real energy:                 0.00000000
	Host/Adsorbate charge-bonddipole Fourier energy:              0.00000000
	Host/Adsorbate bondipole-bonddipole Real energy:              0.00000000
	Host/Adsorbate bondipole-bonddipole Fourier energy:           0.00000000

Host/Cation energy:                                           0.00000000
	Host/Cation VDW energy:                                       0.00000000
	Host/Cation Coulomb energy:                                   0.00000000
	Host/Cation charge-charge Real energy:                        0.00000000
	Host/Cation charge-charge Fourier energy:                     0.00000000
	Host/Cation charge-bonddipole Real energy:                    0.00000000
	Host/Cation charge-bonddipole Fourier energy:                 0.00000000
	Host/Cation bondipole-bonddipole Real energy:                 0.00000000
	Host/Cation bondipole-bonddipole Fourier energy:              0.00000000

Adsorbate/Adsorbate energy:                                     -355.60097260
	Adsorbate/Adsorbate VDW energy:                                   -6.67035977
	Adsorbate/Adsorbate Coulomb energy:                             -348.93061283
	Adsorbate/Adsorbate charge-charge Real energy:                    -2.28198720
	Adsorbate/Adsorbate charge-charge Fourier energy:               -346.64862563
	Adsorbate/Adsorbate charge-bonddipole Real energy:                 0.00000000
	Adsorbate/Adsorbate charge-bonddipole Fourier energy:              0.00000000
	Adsorbate/Adsorbate bondipole-bonddipole Real energy:              0.00000000
	Adsorbate/Adsorbate bondipole-bonddipole Fourier energy:           0.00000000

Adsorbate/Cation energy:                                           0.00000000
	Adsorbate/Cation VDW energy:                                       0.00000000
	Adsorbate/Cation Coulomb energy:                                   0.00000000
	Adsorbate/Cation charge-charge Real energy:                        0.00000000
	Adsorbate/Cation charge-charge Fourier energy:                     0.00000000
	Adsorbate/Cation charge-bonddipole Real energy:                    0.00000000
	Adsorbate/Cation charge-bonddipole Fourier energy:                 0.00000000
	Adsorbate/Cation bondipole-bonddipole Real energy:                 0.00000000
	Adsorbate/Cation bondipole-bonddipole Fourier energy:              0.00000000

Cation/Cation energy:                                           0.00000000
	Cation/Cation VDW energy:                                       0.00000000
	Cation/Cation Coulomb energy:                                   0.00000000
	Cation/Cation charge-charge Real energy:                        0.00000000
	Cation/Cation charge-charge Fourier energy:                     0.00000000
	Cation/Cation charge-bonddipole Real energy:                    0.00000000
	Cation/Cation charge-bonddipole Fourier energy:                 0.00000000
	Cation/Cation bondipole-bonddipole Real energy:                 0.00000000
	Cation/Cation bondipole-bonddipole Fourier energy:              0.00000000

Polarization energy:
	Host polarization energy:                                     0.00000000
	Adsorbate polarization energy:                                0.00000000
	Cation polarization energy:                                   0.00000000
	Host back-polarization energy:                                     0.00000000
	Adsorbate back-polarization energy:                                0.00000000
	Cation back-polarization energy:                                   0.00000000

Tail-correction energy:                                       0.00000000

Distance constraints energy:                                  0.00000000
Angle constraints energy:                                     0.00000000
Dihedral constraints energy:                                  0.00000000
Inversion-bend constraints energy:                            0.00000000
Out-of-plane distance constraints energy:                     0.00000000
Exclusion constraints energy:                                 0.00000000

===================================================================
Total energy:                nan
	Total Van der Waals: 58429.126644
	Total Coulomb: nan

	Total Polarization: 0.000000







+++++++++++++++++++++++++++++++++++++++++++++++++++++++++++++++++++++++++
Starting simulation
+++++++++++++++++++++++++++++++++++++++++++++++++++++++++++++++++++++++++

Total number of variables used in the minimization: 246
Number of cell-variables used in the minimization: 6
Total number of variables used for generalized coordinates in the minimization: 240
Total number of variables used for positions in the minimization: 234
Total number of variables used for orientation in the minimization: 6

Minimization initial volume:    1486.1389854480 [A^3]
Minimization initial energy:  366539.1529209121 [K]
Minimization initial strain:       0.0000000000 [-]
Minimization initial box:      16.7330000000       0.0000000000       0.0000000000[-]
                                0.0000000000      13.0380000000       0.0000000000[-]
                                0.0000000000       0.0000000000       6.8120000000[-]

Beginning Baker minimization:
-----------------------------
Computing generalized Hessian matrix
Projecting constraints from generalized Hessian matrix
Computing eigenvalues and vectors
Shifting parameter: -132569.4254374053 Lowest eigenvalue:   -9529.6119387467
[...]
	Average              0.00000 [K] +/-            0.00000 [K]

Average Adsorbate Intra charge-charge Coulomb energy:
=======================================
	Block[ 0]            0.00000 [K]
	Block[ 1]            0.00000 [K]
	Block[ 2]            0.00000 [K]
	Block[ 3]            0.00000 [K]
	Block[ 4]            0.00000 [K]
	------------------------------------------------------------------------------
	Average              0.00000 [K] +/-            0.00000 [K]

Average Adsorbate Intra charge-bonddipole Coulomb energy:
=======================================
	Block[ 0]            0.00000 [K]
	Block[ 1]            0.00000 [K]
	Block[ 2]            0.00000 [K]
	Block[ 3]            0.00000 [K]
	Block[ 4]            0.00000 [K]
	------------------------------------------------------------------------------
	Average              0.00000 [K] +/-            0.00000 [K]

Average Adsorbate Intra bonddipole-bonddipole Coulomb energy:
=======================================
	Block[ 0]            0.00000 [K]
	Block[ 1]            0.00000 [K]
	Block[ 2]            0.00000 [K]
	Block[ 3]            0.00000 [K]
	Block[ 4]            0.00000 [K]
	------------------------------------------------------------------------------
	Average              0.00000 [K] +/-            0.00000 [K]

Average Cation Bond stretch energy:
=================================
	Block[ 0]            0.00000 [K]
	Block[ 1]            0.00000 [K]
	Block[ 2]            0.00000 [K]
	Block[ 3]            0.00000 [K]
	Block[ 4]            0.00000 [K]
	------------------------------------------------------------------------------
	Average              0.00000 [K] +/-            0.00000 [K]

Average Cation UreyBradley stretch energy:
==========================================
	Block[ 0]            0.00000 [K]
	Block[ 1]            0.00000 [K]
	Block[ 2]            0.00000 [K]
	Block[ 3]            0.00000 [K]
	Block[ 4]            0.00000 [K]
	------------------------------------------------------------------------------
	Average              0.00000 [K] +/-            0.00000 [K]

Average Cation Bend angle energy:
=================================
	Block[ 0]            0.00000 [K]
	Block[ 1]            0.00000 [K]
	Block[ 2]            0.00000 [K]
	Block[ 3]            0.00000 [K]
	Block[ 4]            0.00000 [K]
	------------------------------------------------------------------------------
	Average              0.00000 [K] +/-            0.00000 [K]

Average Cation Bend angle inversion energy:
===========================================
	Block[ 0]            0.00000 [K]
	Block[ 1]            0.00000 [K]
	Block[ 2]            0.00000 [K]
	Block[ 3]            0.00000 [K]
	Block[ 4]            0.00000 [K]
	------------------------------------------------------------------------------
	Average              0.00000 [K] +/-            0.00000 [K]

Average Cation Torsion energy:
==============================
	Block[ 0]            0.00000 [K]
	Block[ 1]            0.00000 [K]
	Block[ 2]            0.00000 [K]
	Block[ 3]            0.00000 [K]
	Block[ 4]            0.00000 [K]
	------------------------------------------------------------------------------
	Average              0.00000 [K] +/-            0.00000 [K]

Average Cation Improper Torsion energy:
=======================================
	Block[ 0]            0.00000 [K]
	Block[ 1]            0.00000 [K]
	Block[ 2]            0.00000 [K]
	Block[ 3]            0.00000 [K]
	Block[ 4]            0.00000 [K]
	------------------------------------------------------------------------------
	Average              0.00000 [K] +/-            0.00000 [K]

Average Cation Bond-Bond cross term energy:
=================================================
	Block[ 0]            0.00000 [K]
	Block[ 1]            0.00000 [K]
	Block[ 2]            0.00000 [K]
	Block[ 3]            0.00000 [K]
	Block[ 4]            0.00000 [K]
	------------------------------------------------------------------------------
	Average              0.00000 [K] +/-            0.00000 [K]

Average Cation Bend-Bend cross term energy:
===========================================
	Block[ 0]            0.00000 [K]
	Block[ 1]            0.00000 [K]
	Block[ 2]            0.00000 [K]
	Block[ 3]            0.00000 [K]
	Block[ 4]            0.00000 [K]
	------------------------------------------------------------------------------
	Average              0.00000 [K] +/-            0.00000 [K]

Average Cation Bond-Bend cross term energy:
==============================================
	Block[ 0]            0.00000 [K]
	Block[ 1]            0.00000 [K]
	Block[ 2]            0.00000 [K]
	Block[ 3]            0.00000 [K]
	Block[ 4]            0.00000 [K]
	------------------------------------------------------------------------------
	Average              0.00000 [K] +/-            0.00000 [K]

Average Cation Bond-Torsion cross term energy:
==============================================
	Block[ 0]            0.00000 [K]
	Block[ 1]            0.00000 [K]
	Block[ 2]            0.00000 [K]
	Block[ 3]            0.00000 [K]
	Block[ 4]            0.00000 [K]
	------------------------------------------------------------------------------
	Average              0.00000 [K] +/-            0.00000 [K]

Average Cation Bend-Torsion cross term energy:
==============================================
	Block[ 0]            0.00000 [K]
	Block[ 1]            0.00000 [K]
	Block[ 2]            0.00000 [K]
	Block[ 3]            0.00000 [K]
	Block[ 4]            0.00000 [K]
	------------------------------------------------------------------------------
	Average              0.00000 [K] +/-            0.00000 [K]

Average Cation Intra Van der Waals energy:
==========================================
	Block[ 0]            0.00000 [K]
	Block[ 1]            0.00000 [K]
	Block[ 2]            0.00000 [K]
	Block[ 3]            0.00000 [K]
	Block[ 4]            0.00000 [K]
	------------------------------------------------------------------------------
	Average              0.00000 [K] +/-            0.00000 [K]

Average Cation Intra charge-charge Coulomb energy:
====================================
	Block[ 0]            0.00000 [K]
	Block[ 1]            0.00000 [K]
	Block[ 2]            0.00000 [K]
	Block[ 3]            0.00000 [K]
	Block[ 4]            0.00000 [K]
	------------------------------------------------------------------------------
	Average              0.00000 [K] +/-            0.00000 [K]

Average Cation Intra charge-bonddipole Coulomb energy:
====================================
	Block[ 0]            0.00000 [K]
	Block[ 1]            0.00000 [K]
	Block[ 2]            0.00000 [K]
	Block[ 3]            0.00000 [K]
	Block[ 4]            0.00000 [K]
	------------------------------------------------------------------------------
	Average              0.00000 [K] +/-            0.00000 [K]

Average Cation Intra bonddipole-bonddipole Coulomb energy:
====================================
	Block[ 0]            0.00000 [K]
	Block[ 1]            0.00000 [K]
	Block[ 2]            0.00000 [K]
	Block[ 3]            0.00000 [K]
	Block[ 4]            0.00000 [K]
	------------------------------------------------------------------------------
	Average              0.00000 [K] +/-            0.00000 [K]

Average Host-Host energy:
=========================
	Block[ 0] 0.00000            Van der Waals: 0.00000            Coulomb: 0.00000            [K]
	Block[ 1] 0.00000            Van der Waals: 0.00000            Coulomb: 0.00000            [K]
	Block[ 2] 0.00000            Van der Waals: 0.00000            Coulomb: 0.00000            [K]
	Block[ 3] 0.00000            Van der Waals: 0.00000            Coulomb: 0.00000            [K]
	Block[ 4] 0.00000            Van der Waals: 0.00000            Coulomb: 0.00000            [K]
	------------------------------------------------------------------------------
	Average   0.00000            Van der Waals: 0.000000           Coulomb: 0.00000            [K]
	      +/- 0.00000                       +/- 0.000000                +/- 0.00000            [K]

Average Adsorbate-Adsorbate energy:
===================================
	Block[ 0] 0.00000            Van der Waals: 0.00000            Coulomb: 0.00000            [K]
	Block[ 1] 0.00000            Van der Waals: 0.00000            Coulomb: 0.00000            [K]
	Block[ 2] 0.00000            Van der Waals: 0.00000            Coulomb: 0.00000            [K]
	Block[ 3] 0.00000            Van der Waals: 0.00000            Coulomb: 0.00000            [K]
	Block[ 4] 0.00000            Van der Waals: 0.00000            Coulomb: 0.00000            [K]
	------------------------------------------------------------------------------
	Average   0.00000            Van der Waals: 0.000000           Coulomb: 0.00000            [K]
	      +/- 0.00000                       +/- 0.000000                +/- 0.00000            [K]

Average Cation-Cation energy:
=============================
	Block[ 0] 0.00000            Van der Waals: 0.00000            Coulomb: 0.00000            [K]
	Block[ 1] 0.00000            Van der Waals: 0.00000            Coulomb: 0.00000            [K]
	Block[ 2] 0.00000            Van der Waals: 0.00000            Coulomb: 0.00000            [K]
	Block[ 3] 0.00000            Van der Waals: 0.00000            Coulomb: 0.00000            [K]
	Block[ 4] 0.00000            Van der Waals: 0.00000            Coulomb: 0.00000            [K]
	------------------------------------------------------------------------------
	Average   0.00000            Van der Waals: 0.000000           Coulomb: 0.00000            [K]
	      +/- 0.00000                       +/- 0.000000                +/- 0.00000            [K]

Average Host-Adsorbate energy:
==============================
	Block[ 0] 0.00000            Van der Waals: 0.00000            Coulomb: 0.00000            [K]
	Block[ 1] 0.00000            Van der Waals: 0.00000            Coulomb: 0.00000            [K]
	Block[ 2] 0.00000            Van der Waals: 0.00000            Coulomb: 0.00000            [K]
	Block[ 3] 0.00000            Van der Waals: 0.00000            Coulomb: 0.00000            [K]
	Block[ 4] 0.00000            Van der Waals: 0.00000            Coulomb: 0.00000            [K]
	------------------------------------------------------------------------------
	Average   0.00000            Van der Waals: 0.000000           Coulomb: 0.00000            [K]
	      +/- 0.00000                       +/- 0.000000                +/- 0.00000            [K]

Average Host-Cation energy:
===========================
	Block[ 0] 0.00000            Van der Waals: 0.00000            Coulomb: 0.00000            [K]
	Block[ 1] 0.00000            Van der Waals: 0.00000            Coulomb: 0.00000            [K]
	Block[ 2] 0.00000            Van der Waals: 0.00000            Coulomb: 0.00000            [K]
	Block[ 3] 0.00000            Van der Waals: 0.00000            Coulomb: 0.00000            [K]
	Block[ 4] 0.00000            Van der Waals: 0.00000            Coulomb: 0.00000            [K]
	------------------------------------------------------------------------------
	Average   0.00000            Van der Waals: 0.000000           Coulomb: 0.00000            [K]
	      +/- 0.00000                       +/- 0.000000                +/- 0.00000            [K]

Average Adsorbate-Cation energy:
================================
	Block[ 0] 0.00000            Van der Waals: 0.00000            Coulomb: 0.00000            [K]
	Block[ 1] 0.00000            Van der Waals: 0.00000            Coulomb: 0.00000            [K]
	Block[ 2] 0.00000            Van der Waals: 0.00000            Coulomb: 0.00000            [K]
	Block[ 3] 0.00000            Van der Waals: 0.00000            Coulomb: 0.00000            [K]
	Block[ 4] 0.00000            Van der Waals: 0.00000            Coulomb: 0.00000            [K]
	------------------------------------------------------------------------------
	Average   0.00000            Van der Waals: 0.000000           Coulomb: 0.00000            [K]
	      +/- 0.00000                       +/- 0.000000                +/- 0.00000            [K]

Host polarization energy:
=======================
	Block[ 0]            0.00000 [K]
	Block[ 1]            0.00000 [K]
	Block[ 2]            0.00000 [K]
	Block[ 3]            0.00000 [K]
	Block[ 4]            0.00000 [K]
	------------------------------------------------------------------------------
	Average              0.00000 [K] +/-            0.00000 [K]

Adsorbate polarization energy:
=======================
	Block[ 0]            0.00000 [K]
	Block[ 1]            0.00000 [K]
	Block[ 2]            0.00000 [K]
	Block[ 3]            0.00000 [K]
	Block[ 4]            0.00000 [K]
	------------------------------------------------------------------------------
	Average              0.00000 [K] +/-            0.00000 [K]

Cation polarization energy:
=======================
	Block[ 0]            0.00000 [K]
	Block[ 1]            0.00000 [K]
	Block[ 2]            0.00000 [K]
	Block[ 3]            0.00000 [K]
	Block[ 4]            0.00000 [K]
	------------------------------------------------------------------------------
	Average              0.00000 [K] +/-            0.00000 [K]

Host back-polarization energy:
=======================
	Block[ 0]            0.00000 [K]
	Block[ 1]            0.00000 [K]
	Block[ 2]            0.00000 [K]
	Block[ 3]            0.00000 [K]
	Block[ 4]            0.00000 [K]
	------------------------------------------------------------------------------
	Average              0.00000 [K] +/-            0.00000 [K]

Adsorbate back-polarization energy:
=======================
	Block[ 0]            0.00000 [K]
	Block[ 1]            0.00000 [K]
	Block[ 2]            0.00000 [K]
	Block[ 3]            0.00000 [K]
	Block[ 4]            0.00000 [K]
	------------------------------------------------------------------------------
	Average              0.00000 [K] +/-            0.00000 [K]

Cation back-polarization energy:
=======================
	Block[ 0]            0.00000 [K]
	Block[ 1]            0.00000 [K]
	Block[ 2]            0.00000 [K]
	Block[ 3]            0.00000 [K]
	Block[ 4]            0.00000 [K]
	------------------------------------------------------------------------------
	Average              0.00000 [K] +/-            0.00000 [K]

Tail-correction energy:
=======================
	Block[ 0]            0.00000 [K]
	Block[ 1]            0.00000 [K]
	Block[ 2]            0.00000 [K]
	Block[ 3]            0.00000 [K]
	Block[ 4]            0.00000 [K]
	------------------------------------------------------------------------------
	Average              0.00000 [K] +/-            0.00000 [K]

Distance-constraints energy:
=======================
	Block[ 0]            0.00000 [K]
	Block[ 1]            0.00000 [K]
	Block[ 2]            0.00000 [K]
	Block[ 3]            0.00000 [K]
	Block[ 4]            0.00000 [K]
	------------------------------------------------------------------------------
	Average              0.00000 [K] +/-            0.00000 [K]

Angle-constraints energy:
=======================
	Block[ 0]            0.00000 [K]
	Block[ 1]            0.00000 [K]
	Block[ 2]            0.00000 [K]
	Block[ 3]            0.00000 [K]
	Block[ 4]            0.00000 [K]
	------------------------------------------------------------------------------
	Average              0.00000 [K] +/-            0.00000 [K]

Dihedral-constraints energy:
=======================
	Block[ 0]            0.00000 [K]
	Block[ 1]            0.00000 [K]
	Block[ 2]            0.00000 [K]
	Block[ 3]            0.00000 [K]
	Block[ 4]            0.00000 [K]
	------------------------------------------------------------------------------
	Average              0.00000 [K] +/-            0.00000 [K]

Inversion-bend constraints energy:
=======================
	Block[ 0]            0.00000 [K]
	Block[ 1]            0.00000 [K]
	Block[ 2]            0.00000 [K]
	Block[ 3]            0.00000 [K]
	Block[ 4]            0.00000 [K]
	------------------------------------------------------------------------------
	Average              0.00000 [K] +/-            0.00000 [K]

Out-of-plane-distance constraints energy:
=======================
	Block[ 0]            0.00000 [K]
	Block[ 1]            0.00000 [K]
	Block[ 2]            0.00000 [K]
	Block[ 3]            0.00000 [K]
	Block[ 4]            0.00000 [K]
	------------------------------------------------------------------------------
	Average              0.00000 [K] +/-            0.00000 [K]

Exclusion-constraints energy:
=======================
	Block[ 0]            0.00000 [K]
	Block[ 1]            0.00000 [K]
	Block[ 2]            0.00000 [K]
	Block[ 3]            0.00000 [K]
	Block[ 4]            0.00000 [K]
	------------------------------------------------------------------------------
	Average              0.00000 [K] +/-            0.00000 [K]

Total energy:
=============
	Block[ 0]            0.00000 [K]
	Block[ 1]            0.00000 [K]
	Block[ 2]            0.00000 [K]
	Block[ 3]            0.00000 [K]
	Block[ 4]            0.00000 [K]
	------------------------------------------------------------------------------
	Average              0.00000 [K] +/-            0.00000 [K]

Number of molecules:
====================

Component 0 [Tip5p]
-------------------------------------------------------------
	Block[ 0] 0.00000            [-]
	Block[ 1] 0.00000            [-]
	Block[ 2] 0.00000            [-]
	Block[ 3] 0.00000            [-]
	Block[ 4] 0.00000            [-]
	------------------------------------------------------------------------------
	Average                                      0.0000000000 +/-       0.0000000000 [-]
	Average loading absolute [molecules/unit cell]        0.0000000000 +/-       0.0000000000 [-]
	Average loading absolute [mol/kg framework]          0.0000000000 +/-       0.0000000000 [-]
	Average loading absolute [milligram/gram framework]          0.0000000000 +/-       0.0000000000 [-]
	Average loading absolute [cm^3 (STP)/gr framework]          0.0000000000 +/-       0.0000000000 [-]
	Average loading absolute [cm^3 (STP)/cm^3 framework]          0.0000000000 +/-       0.0000000000 [-]

	Block[ 0] 0.00000            [-]
	Block[ 1] 0.00000            [-]
	Block[ 2] 0.00000            [-]
	Block[ 3] 0.00000            [-]
	Block[ 4] 0.00000            [-]
	------------------------------------------------------------------------------
	Average                                      0.0000000000 +/-       0.0000000000 [-]
	Average loading excess [molecules/unit cell]        0.0000000000 +/-       0.0000000000 [-]
	Average loading excess [mol/kg framework]          0.0000000000 +/-       0.0000000000 [-]
	Average loading excess [milligram/gram framework]          0.0000000000 +/-       0.0000000000 [-]
	Average loading excess [cm^3 (STP)/gr framework]          0.0000000000 +/-       0.0000000000 [-]
	Average loading excess [cm^3 (STP)/cm^3 framework]          0.0000000000 +/-       0.0000000000 [-]


Average Widom Rosenbluth factor:
================================
	Block[ 0] 0 [-]
	Block[ 1] 0 [-]
	Block[ 2] 0 [-]
	Block[ 3] 0 [-]
	Block[ 4] 0 [-]
	------------------------------------------------------------------------------
	[Tip5p] Average Widom:   0 +/- 0.000000 [-]

Average Henry coefficient:
==========================
	Block[ 0] 0 [mol/kg/Pa]
	Block[ 1] 0 [mol/kg/Pa]
	Block[ 2] 0 [mol/kg/Pa]
	Block[ 3] 0 [mol/kg/Pa]
	Block[ 4] 0 [mol/kg/Pa]
	------------------------------------------------------------------------------
	[Tip5p] Average Henry coefficient:  0 +/- 0 [mol/kg/Pa]

Average adsorption energy <U_gh>_1-<U_h>_0 obtained from Widom-insertion:
(Note: the total heat of adsorption is dH=<U_gh>_1-<U_h>_0 - <U_g> - RT)
=========================================================================

Simulation finished,  0 warnings


Tue Mar  3 10:06:40 2015
Simulation finished on Tuesday, March 03.
The end time was 10:06 AM.

