Compiler and run-time data
===========================================================================
RASPA 2.0.45
Compiled as a 64-bits application
Compiler: gcc Apple LLVM 12.0.5 (clang-1205.0.22.9)
Compile Date = May 18 2021, Compile Time = 12:54:12

Tue May 18 14:34:02 2021
Simulation started on Tuesday, May 18.
The start time was 02:34 PM.

Cpu data:    x86_64
Cpu Model:   MacPro7,1
Host name:   MacPro.local
OS release:  20.4.0
OS type:     Darwin
OS version:  20E232


Simulation
===========================================================================
Dimensions: 3
Random number seed: 1621341241
RASPA directory set to: /Users/dubbelda/RASPA/simulations/
String appended to output-files: 
Number of cycles: 250000
Number of initializing cycles: 5000
Number of equilibration cycles: 10000
Print every: 5000
Triclinic boundary condition applied
Timestep: 0.000500
Initialization Ensemble: NVT (constant number of particles N, constant volume V, constant average temperature T)
Production run ensemble: NVT (constant number of particles N, constant volume V, constant average temperature T)
	Degrees of freedom:                        608
	Translational Degrees of freedom:          480
	Rotational Degrees of freedom:             128
	Degrees of freedom Framework:              0


Mutual consistent basic set of units:
======================================
Unit of temperature: Kelvin
Unit of length:      1e-10 [m]
Unit of time:        1e-12 [s]
Unit of mass:        1.66054e-27 [kg]
Unit of charge:      1.60218e-19 [C/particle]

Derived units and their conversion factors:
===========================================
Unit of energy:              1.66054e-23 [J]
Unit of force:               1.66054e-13 [N]
Unit of pressure:            1.66054e+07 [Pa]
Unit of velocity:            100 [m/s]
Unit of acceleration:        1e-08 [m^2/s]
Unit of diffusion:           1e-08 [m^2/s]
Unit of dipole moment:       1.60218e-29 [C.m]
Unit of electric potential:  0.000103643 [V]
Unit of electric field:      1.03643e+06 [V]
Unit of polarizability:      1.54587e-35 [-]
Unit of Coulomb potential:   167101.0800066561  [K]
Unit of dielectric constant: 0.0000154587       [s^2 C^2/(kg m^3)]
Unit of wave vectors:        5.3088374589       [cm^1]
Boltzmann constant:          0.8314464919       [-]

Internal conversion factors:
===========================================
Energy to Kelvin:                                    1.2027242847
FH correction factor                                 2.0211930949
Heat capacity conversion factor:                    10.0000088723
From Debye to internal units:                        4.8032067991
Isothermal compressibility conversion factor:        0.0000000602

Energy conversion factors:
===========================================
From mdyne/A to kcal/mol/A^2:           143.933
From mdyne/A to kj/mol/A^2:             602.214
From mdyne/A to K/A^2:                  72429.7
From mdyne A/rad^2 to kcal/mol/deg^2:   0.0438444


Properties computed
===========================================================================
Movies: no
Radial Distribution Function: no
Number of molecules GCMC histogram: no
Histogram of the molecule positions: no
Free energy profiles: no
Pore Size Distribution Function: no
End-to-end distance: no
Histogram of the energy of the system: no
Compute thermodynamic factors: no
Framework spacing histograms: no
Residence times histograms: no
Distance histograms: no
Bend Angle histograms: no
Dihedral angle histograms: no
Angle between planes histograms: no
Molecule properties: no
Infra-red spectra: no
Mean-squared displacement using modified order-N algorithm: yes
	msd is sampled every 1 cycles
	msd is written to file every 5000 cycles
	the (initial) maximum number of blocks: 25
	the number of elements per block: 25
	the msd's are computed per component
Velocity-autocorrelation function modified order-N algorithm: no
Rotational velocity-autocorrelation function modified order-N algorithm: no
Molecular orientation-autocorrelation function modified order-N algorithm: no
Bond orientation-autocorrelation function modified order-N algorithm: no
Mean-squared displacement (conventional algorithm): no
Velocity-autocorrelation function (conventional algorithm): no
3D density grid for adsorbates: no
Compute cation an/or adsorption sites: no
dcTST snapshots: no
Compute pressure and stress: no


VTK
===========================================================================
VTK fractional-range position framework atoms: [-0.001000,1.001000] [-0.001000,1.001000] [-0.001000,1.001000]
VTK fractional-range position framework bonds: [-0.151000,1.151000] [-0.151000,1.151000] [-0.151000,1.151000]
VTK fractional-range com-position adsorbate molecules: [-0.101000,1.101000] [-0.101000,1.101000] [-0.101000,1.101000]
VTK fractional-range com-position cation molecules: [-0.101000,1.101000] [-0.101000,1.101000] [-0.101000,1.101000]
	3D free energy grid made for the full simulation-cell


Thermo/Baro-stat NHC parameters
===========================================================================
External temperature: 600 [K]
Beta: 0.00200454 [energy unit]
External Pressure: 0 [Pa]


Thermostat chain-length: 3
Timescale parameter for thermostat: 0.150000 [ps]
Barostat chain-length:   3
Timescale parameter for barostat:   0.150000 [ps]

Number of Yoshida-Suzuki decomposition steps: 5
Number of respa steps: 5


Method and settings for electrostatics
===============================================================================
Dielectric constant of the medium : 1.000000
Charge from charge-equilibration: no
Ewald summation is used (exact solution of a periodic system)
Relative precision                : 1e-06
Alpha convergence parameter       : 0.265058
kvec (x,y,z)                      : 7 7 7


CFC-RXMC parameters
===========================================================================
Number of reactions: 0


Rattle parameters
===========================================================================
Distance constraint type: r^2-r^2_0
Bend angle constraint type: theta-theta_0
Dihedral angle constraint type: phi-phi_0
Inversion-bend angle constraint type: chi-chi_0
Out-of-plane distance constraint type: r-r_0


Spectra parameters
===========================================================================
Compute normal modes: no


Minimization parameters
===========================================================================
Generalized coordinates are: Cartesian center-of-mass, elements of the orientational matrix p1,p2,p3 and strain
Potential derivatives are evaluated: analytically
Translation of the system is removed from the generalized Hessian: no
Rotation of the system is removed from the generalized Hessian: no
Maximum step-length: 0.3
Convergence factor: 1
Maximum number of minimization steps: 10000
Use gradients in the line-minimizations: yes
RMS gradient tolerance: 1e-06
Maximum gradient tolerance: 1e-06

Distance constraints: 0
Angle constraints: 0
Dihedral constraints: 0

Improper dihedral constraints: 0

Inversion-bend constraints: 0

Out-of-plane constraints: 0

Harmonic distance constraints: 0
Harmonic angle constraints: 0
Harmonic dihedral constraints: 0

Dihedral mid-point measurements: 0

All framework atoms are fixed

Fixed adsorbate atoms:  
Fixed adsorbate groups (center-of-mass):  
Fixed adsorbate groups (orientation):  

Fixed cation atoms:  
Fixed cation groups (center-of-mass):  
Fixed cation groups (orientation):  


dcTST parameters
===========================================================================
Free energy profiles computed: no
Free energy profiles written every 5000 cycles
Free energy mapping: mapped to a,b,c-coordinates
BarrierPosition:       0.0000000000       0.0000000000       0.0000000000
BarrierNormal:         0.0000000000       0.0000000000       0.0000000000
Start with a molecule on top of the barrier: no
Maximum distance to barrier (e.g. distance to minumum free energy):       0.0000000000 [A]
Maximum trajectory time:      10.0000000000 [ps]
Each configuration is used with 5 different initial velocities


Cbmc parameters
===========================================================================
Biasing method: using only the VDW part
Number of trial positions:                                       10
Number of trial positions (reinsertion):                         10
Number of trial positions (partial reinsertion):                 10
Number of trial positions (identity-change):                     10
Number of trial positions (Gibbs particle transfer):             10
Number of trial positions (insertion/deletion):                  10
Number of trial positions (Widom insertion):                     10
Number of trial positions coupled Torsion-selection:             100
Number of trial positions first bead:                            10
Number of trial positions first bead (reinsertion):              10
Number of trial positions first bead (partial reinsertion):      10
Number of trial positions first bead (identity-change):          10
Number of trial positions first bead (Gibbs particle transfer):  10
Number of trial positions first bead (insertion/deletion):       10
Number of trial positions first bead (Widom insertion):          10
Number of trial moves per open bead:                             150
Target acceptance ratio small-mc scheme:                         0.400000
Energy overlap criteria:                                         1e+07
Minimal Rosenbluth factor:                                       1e-150


Pseudo atoms: 8
===========================================================================
Pseudo Atom[   0] Name UNIT     Oxidation:          Element: H    pdb-name: H    Scat. Types:   1   1 Mass=1.000000000  B-factor:0.000   
                 Charge=1.000000000          Polarization=0.000000000  [A^3] (considered a charged atom and no polarization)  Interactions: yes
                 Anisotropic factor:    0.000 [-] (Absolute), Radius:    1.000 [A], Framework-atom:  no
Pseudo Atom[   1] Name O        Oxidation: +0       Element: O    pdb-name: O    Scat. Types:   9   8 Mass=15.999400000 B-factor:1.000   
                 Charge=nan                  Polarization=0.000000000  [A^3] (considered a charged atom and no polarization)  Interactions: yes
                 Anisotropic factor:    0.000 [-] (Absolute), Radius:    0.500 [A], Framework-atom: yes (charge from pseudo-atoms file)
Pseudo Atom[   2] Name Oa       Oxidation: +0       Element: O    pdb-name: Oa   Scat. Types:   9  -1 Mass=15.999400000 B-factor:1.000   
                 Charge=-0.413840000         Polarization=0.000000000  [A^3] (considered a charged atom and no polarization)  Interactions: yes
                 Anisotropic factor:    0.000 [-] (Absolute), Radius:    0.500 [A], Framework-atom:  no
Pseudo Atom[   3] Name Si       Oxidation: +0       Element: Si   pdb-name: Si   Scat. Types:  15  14 Mass=28.085500000 B-factor:1.000   
                 Charge=0.785980000          Polarization=0.000000000  [A^3] (considered a charged atom and no polarization)  Interactions: yes
                 Anisotropic factor:    0.000 [-] (Absolute), Radius:    1.180 [A], Framework-atom: yes (charge from pseudo-atoms file)
Pseudo Atom[   4] Name Al       Oxidation: +0       Element: Al   pdb-name: Al   Scat. Types:  14  13 Mass=26.981539000 B-factor:1.000   
                 Charge=0.485980000          Polarization=0.000000000  [A^3] (considered a charged atom and no polarization)  Interactions: yes
                 Anisotropic factor:    0.000 [-] (Absolute), Radius:    1.180 [A], Framework-atom: yes (charge from pseudo-atoms file)
Pseudo Atom[   5] Name C_co2    Oxidation: +0       Element: C    pdb-name: C    Scat. Types:   7   6 Mass=12.000000000 B-factor:1.000   
                 Charge=0.651200000          Polarization=0.000000000  [A^3] (considered a charged atom and no polarization)  Interactions: yes
                 Anisotropic factor:    0.000 [-] (Relative), Radius:    0.720 [A], Framework-atom:  no
Pseudo Atom[   6] Name O_co2    Oxidation: +0       Element: O    pdb-name: O    Scat. Types:   9   8 Mass=15.999400000 B-factor:1.000   
                 Charge=-0.325600000         Polarization=0.000000000  [A^3] (considered a charged atom and no polarization)  Interactions: yes
                 Anisotropic factor:    0.000 [-] (Relative), Radius:    0.680 [A], Framework-atom:  no
Pseudo Atom[   7] Name Na       Oxidation: +0       Element: Na   pdb-name: Na   Scat. Types:  12  11 Mass=22.989770000 B-factor:1.000   
                 Charge=0.383400000          Polarization=0.000000000  [A^3] (considered a charged atom and no polarization)  Interactions: yes
                 Anisotropic factor:    0.000 [-] (Absolute), Radius:    1.000 [A], Framework-atom:  no


Forcefield: Local
===========================================================================
Minimal distance: 1
CutOff VDW : 12.000000 (144.000000)
CutOff VDW switching on: 10.800000 (116.640000)
CutOff charge-charge : 12.000000 (144.000000)
CutOff charge-charge switching on: 7.800000 (60.840000)
CutOff charge-bonddipole : 12.000000 (144.000000)
CutOff charge-bondipole switching on: 8.400000 (70.560000)
CutOff bonddipole-bonddipole : 12.000000 (144.000000)
CutOff bonddipole-bondipole switching on: 9.000000 (81.000000)
Polarization is neglected
All potentials are shifted to zero at the Cutoff

General mixing rule: Lorentz-Berthelot mixing rules are used FIRST for cross terms
0 cross terms are overwritten using the individual mixing rules from the file 'force_field_mixing_rules.def'
and then 13 terms are overwritten using the specific interactions from the file 'force_field.def'

The force field and all the interactions:
      O -       O [ZERO_POTENTIAL]
      O -      Si [ZERO_POTENTIAL]
      O -      Al [ZERO_POTENTIAL]
      O -   C_co2 [LENNARD_JONES] p_0/k_B:  37.59500 [K], p_1: 3.51100 [A], shift/k_B:  -0.09427902 [K], tailcorrection: no
      O -   O_co2 [LENNARD_JONES] p_0/k_B:  78.98000 [K], p_1: 3.23700 [A], shift/k_B:  -0.12166859 [K], tailcorrection: no
      O -      Na [LENNARD_JONES] p_0/k_B:  23.00000 [K], p_1: 3.40000 [A], shift/k_B:  -0.04757175 [K], tailcorrection: no
     Oa -      Oa [ZERO_POTENTIAL]
     Oa -      Si [ZERO_POTENTIAL]
     Oa -      Al [ZERO_POTENTIAL]
     Oa -   C_co2 [LENNARD_JONES] p_0/k_B:  37.59500 [K], p_1: 3.51100 [A], shift/k_B:  -0.09427902 [K], tailcorrection: no
     Oa -   O_co2 [LENNARD_JONES] p_0/k_B:  78.98000 [K], p_1: 3.23700 [A], shift/k_B:  -0.12166859 [K], tailcorrection: no
     Oa -      Na [LENNARD_JONES] p_0/k_B:  23.00000 [K], p_1: 3.40000 [A], shift/k_B:  -0.04757175 [K], tailcorrection: no
     Si -      Si [ZERO_POTENTIAL]
     Si -      Al [ZERO_POTENTIAL]
     Si -   C_co2 [ZERO_POTENTIAL]
     Si -   O_co2 [ZERO_POTENTIAL]
     Si -      Na [ZERO_POTENTIAL]
     Al -      Al [ZERO_POTENTIAL]
     Al -   C_co2 [ZERO_POTENTIAL]
     Al -   O_co2 [ZERO_POTENTIAL]
     Al -      Na [ZERO_POTENTIAL]
  C_co2 -   C_co2 [LENNARD_JONES] p_0/k_B:  29.93300 [K], p_1: 2.74500 [A], shift/k_B:  -0.01715199 [K], tailcorrection: no
  C_co2 -   O_co2 [LENNARD_JONES] p_0/k_B:  50.63981 [K], p_1: 2.88100 [A], shift/k_B:  -0.03878296 [K], tailcorrection: no
  C_co2 -      Na [LENNARD_JONES] p_0/k_B: 362.29200 [K], p_1: 3.32000 [A], shift/k_B:  -0.64962832 [K], tailcorrection: no
  O_co2 -   O_co2 [LENNARD_JONES] p_0/k_B:  85.67100 [K], p_1: 3.01700 [A], shift/k_B:  -0.08652638 [K], tailcorrection: no
  O_co2 -      Na [LENNARD_JONES] p_0/k_B: 200.83100 [K], p_1: 2.75800 [A], shift/k_B:  -0.11838722 [K], tailcorrection: no
     Na -      Na [ZERO_POTENTIAL]


MoleculeDefinitions:
===========================================================================
Component 0 [sodium] (Cation molecule)

	MoleculeDefinitions: Local
	Component contains (at least some) atoms which are charged
	Component contains no atoms with point dipoles (polarization)
	Component has a net charge of 0.383400

	Ideal chain Rosenbluth weight: 1
	Ideal chain total energy: 0.000000

	Critical temparure [K]: 0.000000
	Critical pressure [Pa]: 0.000000
	Acentric factor [-]: 0.000000

	RXMC partition factor ln(q/V) [ln(A^(-3))]:       0.0000000000

	Vapour=stable, Liquid=metastable

	MolFraction:           1.0000000000 [-]
	Compressibility:       0.0000000000 [-]

	Density of the bulk fluid phase:       0.0000000000 [kg/m^3]


	Amount of excess molecules:       0.0000000000 [-]

	Conversion factor molecules/unit cell -> mol/kg:       0.0733287107 [-]
	Conversion factor molecules/unit cell -> mg/g:       1.6858101943 [-]
	Conversion factor molecules/unit cell -> cm^3 STP/gr:       1.6435879441 [-]
	Conversion factor molecules/unit cell -> cm^3 STP/cm^3:       2.5139005377 [-]
	Conversion factor mol/kg -> cm^3 STP/gr:      22.4139757476 [-]
	Conversion factor mol/kg -> cm^3 STP/cm^3:      34.2826228955 [-]

	Partial pressure: -16605402.00000000000000 [Pa]
	                    -124540.51499999999942 [Torr]
	                       -166.05402000000001 [bar]
	                       -163.88257586972614 [atm]

	Fugacity coefficient:      -1.0000000000 [-]

	Partial fugacity:  16605402.00000000000000 [Pa]
	                     124540.51499999999942 [Torr]
	                        166.05402000000001 [bar]
	                        163.88257586972614 [atm]

	Molecule contains 1 number of atoms
		atom:    0  is of type:    7 [        Na] (group: 0)

	Molecule contains 0 chirality centers

	Molecule contains 1 number of groups

		group: 0 containing: 1 elements
		-------------------------------------------------
		the group is modelled as flexible, i.e. no constraints
		Mass: 22.989770 [a.u.]
		Mass: 2.578481 [kg/m^3]

		Rotational Degrees of freedom: 0
		Diagonalized inertia vector:       0.0000000000
		                                   0.0000000000
		                                   0.0000000000
		element: 0 atom: 0 [        Na] Charge:  0.383400 Anisotropy: 0.000000 Connectivity: 0 ()

		Dipole:           0.0000000000 [D]
		Quadrupole:       0.0000000000       0.0000000000       0.0000000000 [D Angstrom]
		Quadrupole tensor [D Angstrom]
				       0.0000000000       0.0000000000       0.0000000000
				       0.0000000000       0.0000000000       0.0000000000
				       0.0000000000       0.0000000000       0.0000000000

	Starting bead for growth               : 0

	Degrees of freedom                     : 0
	Translational degrees of freedom       : 0
	Rotational degrees of freedom          : 0
	Vibrational degrees of freedom         : 0
	Constraint degrees of freedom          : 0

	Number of atoms                        : 1

	Number of constraint bonds             : 0
	Number of constraint bends             : 0
	Number of constraint inversion bends   : 0
	Number of constraint torsions          : 0
	Number of constraint improper torsions : 0
	Number of constraint improper torsions : 0

	Number of bonds                        : 0
	Number of Urey-Bradleys                : 0
	Number of bends                        : 0
	Number of inversion bends              : 0
	Number of torsions                     : 0
	Number of improper torsions            : 0
	Number of improper torsions            : 0

	Number of bond/bond cross terms        : 0
	Number of bond/bend cross terms        : 0
	Number of bend/bend cross terms        : 0
	Number of stretch/torsion cross terms  : 0
	Number of bend/torsion cross terms     : 0

	Number of charges                      : 1
	Number of bond-dipoles                 : 0

	Number of intra Van der Waals                             : 0
	Number of intra charge-charge Coulomb                     : 0
	Number of intra charge-bonddipole Coulomb                 : 0
	Number of intra bonddipole-bonddipole Coulomb             : 0

	Number of excluded intra charge-charge Coulomb                     : 0
	Number of excluded intra charge-bonddipole Coulomb                 : 0
	Number of excluded intra bonddipole-bonddipole Coulomb             : 0

	Number of cbmc-config moves                               : 0

	Particle Moves:             
		ProbabilityTranslationMove:                  50.000000
			TranslationDirection:      XYZ
		Percentage of random translation moves:            50.000000
		Percentage of rotation moves:                      0.000000
		Percentage of random rotation moves:               0.000000
		Percentage of partial reinsertion moves:           0.000000
		Percentage of reinsertion moves:                   0.000000
		Percentage of reinsertion-in-place moves:          0.000000
		Percentage of reinsertion-in-plane moves:          0.000000
		Percentage of identity-change moves:               0.000000
		Percentage of swap (insert/delete) moves:          0.000000
		Percentage of CF swap lambda moves:                0.000000
		Percentage of CB/CFMC swap lambda moves:           0.000000
		Percentage of Widom insertion moves:               0.000000
		Percentage of CF-Widom insertion moves:            0.000000
		Percentage of Gibbs Widom insertion moves:         0.000000
		Percentage of surface-area moves:                  0.000000
		Percentage of Gibbs particle-transfer moves:       0.000000
		Percentage of Gibbs identity-change moves:         0.000000
		Percentage of CF Gibbs lambda-transfer moves:      0.000000
		Percentage of CB/CFMC Gibbs lambda-transfer moves: 0.000000
		Percentage of exchange frac./int. particle moves:  0.000000
		Percentage of fractional mol. to other box moves:  0.000000
		Percentage of lambda-change moves:                 0.000000
		Percentage of fractional to integer moves:         0.000000

	System Moves:
		Percentage of parallel-tempering moves:            0.000000
		Percentage of hyper-parallel-tempering moves:      0.000000
		Percentage of parallel-mol-fraction moves:         0.000000
			   Component A: 0 B: 1
		Percentage of chiral inversion moves:              0.000000
		Percentage of Hybrid-NVE moves:                    0.000000
		Percentage of Hybrid-NPH moves:                    0.000000
		Percentage of Hybrid-NPHPR moves:                  0.000000
		Percentage of volume-change moves:                 0.000000
		Percentage of box-shape-change moves:              0.000000
		Percentage of Gibbs volume-change moves:           0.000000
		Percentage of framework-change moves:              0.000000
		Percentage of framework-shift moves:               0.000000
		Percentage of reactive MC moves:                   0.000000

	Moves are restricted: No
	No biased sampling used for this component


	number of identity-config changes: 1
	--------------------------------------------
	nr fixed 1: 0 

	Number of pockets blocked in a unitcell: 0
		Pockets are NOT blocked for this component

Component 1 [CO2] (Adsorbate molecule)

	MoleculeDefinitions: Local
	Component contains (at least some) atoms which are charged
	Component contains no atoms with point dipoles (polarization)
	Component has a net charge of 0.000000

	Ideal chain Rosenbluth weight: 1
	Ideal chain total energy: 0.000000

	Critical temparure [K]: 304.128200
	Critical pressure [Pa]: 7377300.000000
	Acentric factor [-]: 0.223940

	RXMC partition factor ln(q/V) [ln(A^(-3))]:       0.0000000000

	Vapour=stable, Liquid=metastable

	MolFraction:           1.0000000000 [-]
	Compressibility:       0.0000000000 [-]

	Density of the bulk fluid phase:       0.0000000000 [kg/m^3]


	Amount of excess molecules:       0.0000000000 [-]

	Conversion factor molecules/unit cell -> mol/kg:       0.0733287107 [-]
	Conversion factor molecules/unit cell -> mg/g:       3.2263752780 [-]
	Conversion factor molecules/unit cell -> cm^3 STP/gr:       1.6435879441 [-]
	Conversion factor molecules/unit cell -> cm^3 STP/cm^3:       2.5139005377 [-]
	Conversion factor mol/kg -> cm^3 STP/gr:      22.4139757476 [-]
	Conversion factor mol/kg -> cm^3 STP/cm^3:      34.2826228955 [-]

	Partial pressure: -16605402.00000000000000 [Pa]
	                    -124540.51499999999942 [Torr]
	                       -166.05402000000001 [bar]
	                       -163.88257586972614 [atm]

	Fugacity coefficient:      -1.0000000000 [-]

	Partial fugacity:  16605402.00000000000000 [Pa]
	                     124540.51499999999942 [Torr]
	                        166.05402000000001 [bar]
	                        163.88257586972614 [atm]

	Molecule contains 3 number of atoms
		atom:    0  is of type:    6 [     O_co2] (group: 0)
		atom:    1  is of type:    5 [     C_co2] (group: 0)
		atom:    2  is of type:    6 [     O_co2] (group: 0)

	Molecule contains 0 chirality centers

	Molecule contains 1 number of groups

		group: 0 containing: 3 elements
		-------------------------------------------------
		the group is rigid and linear
		Mass: 43.998800 [a.u.]
		Mass: 4.934807 [kg/m^3]

		Rotational Degrees of freedom: 2
		Diagonalized inertia vector:      42.2448477588
		                                  42.2448477588
		                                   0.0000000000
		number of atoms: 3
			element: 0 atom: 0 [     O_co2] Charge: -0.325600 Anisotropy: 0.000000 Position:  0.000000 -0.000000  1.149000 Connectivity: 1 (1 )
			element: 1 atom: 1 [     C_co2] Charge:  0.651200 Anisotropy: 0.000000 Position:  0.000000 -0.000000  0.000000 Connectivity: 2 (0 2 )
			element: 2 atom: 2 [     O_co2] Charge: -0.325600 Anisotropy: 0.000000 Position:  0.000000 -0.000000 -1.149000 Connectivity: 1 (1 )
		number of permanent dipoles: 0
		number of polarizabilities: 0

		Dipole:           0.0000000000 [D]
		Quadrupole:       2.0646942053       2.0646942053      -4.1293884107 [D Angstrom]
		Quadrupole tensor [D Angstrom]
				       2.0646942053       0.0000000000       0.0000000000
				       0.0000000000       2.0646942053       0.0000000000
				       0.0000000000       0.0000000000      -4.1293884107

	Starting bead for growth               : 0

	Degrees of freedom                     : 0
	Translational degrees of freedom       : 0
	Rotational degrees of freedom          : 0
	Vibrational degrees of freedom         : 0
	Constraint degrees of freedom          : 0

	Number of atoms                        : 3

	Number of constraint bonds             : 0
	Number of constraint bends             : 0
	Number of constraint inversion bends   : 0
	Number of constraint torsions          : 0
	Number of constraint improper torsions : 0
	Number of constraint improper torsions : 0

	Number of bonds                        : 2
	Number of Urey-Bradleys                : 0
	Number of bends                        : 0
	Number of inversion bends              : 0
	Number of torsions                     : 0
	Number of improper torsions            : 0
	Number of improper torsions            : 0

	Number of bond/bond cross terms        : 0
	Number of bond/bend cross terms        : 0
	Number of bend/bend cross terms        : 0
	Number of stretch/torsion cross terms  : 0
	Number of bend/torsion cross terms     : 0

	Number of charges                      : 3
	Number of bond-dipoles                 : 0

	Number of intra Van der Waals                             : 0
	Number of intra charge-charge Coulomb                     : 0
	Number of intra charge-bonddipole Coulomb                 : 0
	Number of intra bonddipole-bonddipole Coulomb             : 0

	Number of excluded intra charge-charge Coulomb                     : 3
	Number of excluded intra charge-bonddipole Coulomb                 : 0
	Number of excluded intra bonddipole-bonddipole Coulomb             : 0

	Number of cbmc-config moves                               : 0

	Particle Moves:             
		ProbabilityTranslationMove:                  33.333333
			TranslationDirection:      XYZ
		Percentage of random translation moves:            0.000000
		Percentage of rotation moves:                      33.333333
		Percentage of random rotation moves:               0.000000
		Percentage of partial reinsertion moves:           0.000000
		Percentage of reinsertion moves:                   33.333333
		Percentage of reinsertion-in-place moves:          0.000000
		Percentage of reinsertion-in-plane moves:          0.000000
		Percentage of identity-change moves:               0.000000
		Percentage of swap (insert/delete) moves:          0.000000
		Percentage of CF swap lambda moves:                0.000000
		Percentage of CB/CFMC swap lambda moves:           0.000000
		Percentage of Widom insertion moves:               0.000000
		Percentage of CF-Widom insertion moves:            0.000000
		Percentage of Gibbs Widom insertion moves:         0.000000
		Percentage of surface-area moves:                  0.000000
		Percentage of Gibbs particle-transfer moves:       0.000000
		Percentage of Gibbs identity-change moves:         0.000000
		Percentage of CF Gibbs lambda-transfer moves:      0.000000
		Percentage of CB/CFMC Gibbs lambda-transfer moves: 0.000000
		Percentage of exchange frac./int. particle moves:  0.000000
		Percentage of fractional mol. to other box moves:  0.000000
		Percentage of lambda-change moves:                 0.000000
		Percentage of fractional to integer moves:         0.000000

	System Moves:
		Percentage of parallel-tempering moves:            0.000000
		Percentage of hyper-parallel-tempering moves:      0.000000
		Percentage of parallel-mol-fraction moves:         0.000000
			   Component A: 0 B: 1
		Percentage of chiral inversion moves:              0.000000
		Percentage of Hybrid-NVE moves:                    0.000000
		Percentage of Hybrid-NPH moves:                    0.000000
		Percentage of Hybrid-NPHPR moves:                  0.000000
		Percentage of volume-change moves:                 0.000000
		Percentage of box-shape-change moves:              0.000000
		Percentage of Gibbs volume-change moves:           0.000000
		Percentage of framework-change moves:              0.000000
		Percentage of framework-shift moves:               0.000000
		Percentage of reactive MC moves:                   0.000000

	Moves are restricted: No
	No biased sampling used for this component

	Number of Bonds: 2
	--------------------------------------------
	Bond interaction 0: A=0 B=1 Type:RIGID_BOND
		r_0=1.1490000000       [A]
	Bond interaction 1: A=1 B=2 Type:RIGID_BOND
		r_0=1.1490000000       [A]


	number of identity-config changes: 1
	--------------------------------------------
	nr fixed 1: 0 

	Number of pockets blocked in a unitcell: 0
	Pockets are blocked for this component
	Block-pockets Filename: LTA.block



Framework Status
===========================================================================
Lowenstein's rule obeyed by framework
	Framework is modelled as: rigid

	Number of charges:                               576
	Number of bonddipoles:                           0


System Properties
===========================================================================
Unit cell size: 24.555000 24.555000 24.555000
Cell angles (radians)  alpha: 1.570796 beta: 1.570796 gamma: 1.570796
Cell angles (degrees)  alpha: 90.000000 beta: 90.000000 gamma: 90.000000
Number of unitcells [a]: 1
Number of unitcells [b]: 1
Number of unitcells [c]: 1

TRICLINIC Boundary conditions: alpha!=90 or beta!=90 or gamma!=90

Cartesian axis A is collinear with crystallographic axis a
Cartesian axis B is collinear with (axb)xA
Cartesian axis C is collinear with (axb)

lengths of cell vectors:
 24.55500  24.55500  24.55500
cosines of cell angles:
  0.00000   0.00000   0.00000
perpendicular cell widths:
 24.55500  24.55500  24.55500
volume of the cell: 14805.388753875000 (A^3)

Orthogonalization matrix Box
Transforms fractional coordinates abc into orthonormal Cartesian coordinates xyz
Deorthogonalization matrix InverseBox
Transforms orthonormal Cartesian coordinates xyz into fractional coordinates xyz

Box[0]:
	   24.555000000000     0.000000000000     0.000000000000
	    0.000000000000    24.555000000000     0.000000000000
	    0.000000000000     0.000000000000    24.555000000000

Inverse box[0]:
	    0.040724903278    -0.000000000000    -0.000000000000
	    0.000000000000     0.040724903278    -0.000000000000
	    0.000000000000     0.000000000000     0.040724903278


Unitcell box[0]:
	   24.555000000000     0.000000000000     0.000000000000
	    0.000000000000    24.555000000000     0.000000000000
	    0.000000000000     0.000000000000    24.555000000000

Unitcell inverse box[0]:
	    0.040724903278    -0.000000000000    -0.000000000000
	    0.000000000000     0.040724903278    -0.000000000000
	    0.000000000000     0.000000000000     0.040724903278

lengths of cell vectors (inverse box):
  0.04072   0.04072   0.04072
cosines of cell angles (inverse box):
 -0.00000  -0.00000  -0.00000
perpendicular cell widths (inverse):
  0.04072   0.04072   0.04072
volume of the cell: 14805.388753875000 (A^3)

No replicas are used
Framework is simulated as 'rigid'
Number of framework atoms: 576
Number of framework atoms in the unit cell: 576
Framework Mass: 13637.223264000064 [g/mol]
Framework Density:  1529.519942450558 [kg/m^3]    0.6537999095310 [cm^3/g]
Helium void fraction:    0.00000000
Available pore volume:    0.00000000 [A^3]    0.00000000 [cm^3/g]
Conversion factor from molecule/unit cell -> kmol/m^3: 0.112158, kmol/m^3 accesible pore volume: inf
The framework atom types are modified at reading the input, 1 rules
	rule 0: modify (O) to (Oa) when connected to (Al) and (wild card)

Number Of Frameworks (per system): 1
----------------------------------------------------------------------
Framework name: LTA4A
Citation:
	author name:        'J.J. Pluth and J.V. Smith'
	title:              'Accurate redetermination of crystal structure of dehydrated zeolite A. Absence of near zero coordination of sodium. Refinement of silicon,aluminum-ordered superstructure'
	journal abbrev.:    'J. Am. Chem. Soc.'
	journal volume:     102
	journal issue:      14
	first page:         4704
	last page:          4708
	year:               1980
Space group: 226
	Identifier: 524
	short international Hermann-Mauguin symbol: F m -3 c
	long international Hermann-Mauguin symbol: F 4/m -3 2/c
	Hall symbol: -F 4a 2 3
	Number of lattice translations: 4 [ (0,0,0) (0,0.5,0.5) (0.5,0,0.5) (0.5,0.5,0) ]
	acentric/centric: acentric
	chiral: yes
	enantiomorphic: no
	number of operators: 192
		'x,y,z'
		'-x,-y,z'
		'-x,y,-z'
		'x,-y,-z'
		'z,x,y'
		'z,-x,-y'
		'-z,-x,y'
		'-z,x,-y'
		'y,z,x'
		'-y,z,-x'
		'y,-z,-x'
		'-y,-z,x'
		'y+1/2,x+1/2,-z+1/2'
		'-y+1/2,-x+1/2,-z+1/2'
		'y+1/2,-x+1/2,z+1/2'
		'-y+1/2,x+1/2,z+1/2'
		'x+1/2,z+1/2,-y+1/2'
		'-x+1/2,z+1/2,y+1/2'
		'-x+1/2,-z+1/2,-y+1/2'
		'x+1/2,-z+1/2,y+1/2'
		'z+1/2,y+1/2,-x+1/2'
		'z+1/2,-y+1/2,x+1/2'
		'-z+1/2,y+1/2,x+1/2'
		'-z+1/2,-y+1/2,-x+1/2'
		'-x,-y,-z'
		'x,y,-z'
		'x,-y,z'
		'-x,y,z'
		'-z,-x,-y'
		'-z,x,y'
		'z,x,-y'
		'z,-x,y'
		'-y,-z,-x'
		'y,-z,x'
		'-y,z,x'
		'y,z,-x'
		'-y+1/2,-x+1/2,z+1/2'
		'y+1/2,x+1/2,z+1/2'
		'-y+1/2,x+1/2,-z+1/2'
		'y+1/2,-x+1/2,-z+1/2'
		'-x+1/2,-z+1/2,y+1/2'
		'x+1/2,-z+1/2,-y+1/2'
		'x+1/2,z+1/2,y+1/2'
		'-x+1/2,z+1/2,-y+1/2'
		'-z+1/2,-y+1/2,x+1/2'
		'-z+1/2,y+1/2,-x+1/2'
		'z+1/2,-y+1/2,-x+1/2'
		'z+1/2,y+1/2,x+1/2'
		'x,y+1/2,z+1/2'
		'-x,-y+1/2,z+1/2'
		'-x,y+1/2,-z+1/2'
		'x,-y+1/2,-z+1/2'
		'z,x+1/2,y+1/2'
		'z,-x+1/2,-y+1/2'
		'-z,-x+1/2,y+1/2'
		'-z,x+1/2,-y+1/2'
		'y,z+1/2,x+1/2'
		'-y,z+1/2,-x+1/2'
		'y,-z+1/2,-x+1/2'
		'-y,-z+1/2,x+1/2'
		'y+1/2,x,-z'
		'-y+1/2,-x,-z'
		'y+1/2,-x,z'
		'-y+1/2,x,z'
		'x+1/2,z,-y'
		'-x+1/2,z,y'
		'-x+1/2,-z,-y'
		'x+1/2,-z,y'
		'z+1/2,y,-x'
		'z+1/2,-y,x'
		'-z+1/2,y,x'
		'-z+1/2,-y,-x'
		'-x,-y+1/2,-z+1/2'
		'x,y+1/2,-z+1/2'
		'x,-y+1/2,z+1/2'
		'-x,y+1/2,z+1/2'
		'-z,-x+1/2,-y+1/2'
		'-z,x+1/2,y+1/2'
		'z,x+1/2,-y+1/2'
		'z,-x+1/2,y+1/2'
		'-y,-z+1/2,-x+1/2'
		'y,-z+1/2,x+1/2'
		'-y,z+1/2,x+1/2'
		'y,z+1/2,-x+1/2'
		'-y+1/2,-x,z'
		'y+1/2,x,z'
		'-y+1/2,x,-z'
		'y+1/2,-x,-z'
		'-x+1/2,-z,y'
		'x+1/2,-z,-y'
		'x+1/2,z,y'
		'-x+1/2,z,-y'
		'-z+1/2,-y,x'
		'-z+1/2,y,-x'
		'z+1/2,-y,-x'
		'z+1/2,y,x'
		'x+1/2,y,z+1/2'
		'-x+1/2,-y,z+1/2'
		'-x+1/2,y,-z+1/2'
		'x+1/2,-y,-z+1/2'
		'z+1/2,x,y+1/2'
		'z+1/2,-x,-y+1/2'
		'-z+1/2,-x,y+1/2'
		'-z+1/2,x,-y+1/2'
		'y+1/2,z,x+1/2'
		'-y+1/2,z,-x+1/2'
		'y+1/2,-z,-x+1/2'
		'-y+1/2,-z,x+1/2'
		'y,x+1/2,-z'
		'-y,-x+1/2,-z'
		'y,-x+1/2,z'
		'-y,x+1/2,z'
		'x,z+1/2,-y'
		'-x,z+1/2,y'
		'-x,-z+1/2,-y'
		'x,-z+1/2,y'
		'z,y+1/2,-x'
		'z,-y+1/2,x'
		'-z,y+1/2,x'
		'-z,-y+1/2,-x'
		'-x+1/2,-y,-z+1/2'
		'x+1/2,y,-z+1/2'
		'x+1/2,-y,z+1/2'
		'-x+1/2,y,z+1/2'
		'-z+1/2,-x,-y+1/2'
		'-z+1/2,x,y+1/2'
		'z+1/2,x,-y+1/2'
		'z+1/2,-x,y+1/2'
		'-y+1/2,-z,-x+1/2'
		'y+1/2,-z,x+1/2'
		'-y+1/2,z,x+1/2'
		'y+1/2,z,-x+1/2'
		'-y,-x+1/2,z'
		'y,x+1/2,z'
		'-y,x+1/2,-z'
		'y,-x+1/2,-z'
		'-x,-z+1/2,y'
		'x,-z+1/2,-y'
		'x,z+1/2,y'
		'-x,z+1/2,-y'
		'-z,-y+1/2,x'
		'-z,y+1/2,-x'
		'z,-y+1/2,-x'
		'z,y+1/2,x'
		'x+1/2,y+1/2,z'
		'-x+1/2,-y+1/2,z'
		'-x+1/2,y+1/2,-z'
		'x+1/2,-y+1/2,-z'
		'z+1/2,x+1/2,y'
		'z+1/2,-x+1/2,-y'
		'-z+1/2,-x+1/2,y'
		'-z+1/2,x+1/2,-y'
		'y+1/2,z+1/2,x'
		'-y+1/2,z+1/2,-x'
		'y+1/2,-z+1/2,-x'
		'-y+1/2,-z+1/2,x'
		'y,x,-z+1/2'
		'-y,-x,-z+1/2'
		'y,-x,z+1/2'
		'-y,x,z+1/2'
		'x,z,-y+1/2'
		'-x,z,y+1/2'
		'-x,-z,-y+1/2'
		'x,-z,y+1/2'
		'z,y,-x+1/2'
		'z,-y,x+1/2'
		'-z,y,x+1/2'
		'-z,-y,-x+1/2'
		'-x+1/2,-y+1/2,-z'
		'x+1/2,y+1/2,-z'
		'x+1/2,-y+1/2,z'
		'-x+1/2,y+1/2,z'
		'-z+1/2,-x+1/2,-y'
		'-z+1/2,x+1/2,y'
		'z+1/2,x+1/2,-y'
		'z+1/2,-x+1/2,y'
		'-y+1/2,-z+1/2,-x'
		'y+1/2,-z+1/2,x'
		'-y+1/2,z+1/2,x'
		'y+1/2,z+1/2,-x'
		'-y,-x,z+1/2'
		'y,x,z+1/2'
		'-y,x,-z+1/2'
		'y,-x,-z+1/2'
		'-x,-z,y+1/2'
		'x,-z,-y+1/2'
		'x,z,y+1/2'
		'-x,z,-y+1/2'
		'-z,-y,x+1/2'
		'-z,y,-x+1/2'
		'z,-y,-x+1/2'
		'z,y,x+1/2'
Framework is simulated as 'rigid'
Shift: 0.000000 0.000000 0.000000
Number of framework atoms: 576
Number of asymmetric atoms: 5
Number of free framework atoms: 0
Number of fixed framework atoms: 576
Number of framework atoms in the unit cell: 576
Framework Mass: 11430.205344000064 [g/mol]
Framework Density:  1281.985832563470 [kg/m^3]
Framework has net charge: -36.806400
         largest charge : 0.785980
         smallest charge: -0.413840

Using FULL Host-guest interaction calculation (for testing purposes)

Current Atom Status
===========================================================================
Number of framework atoms        : 576
Number of cations molecules      : 96
Number of adsorbate molecules    : 64
Component    0 :   96 molecules
Component    1 :   64 molecules
Pseudo Atoms    0 [    UNIT]:    0 atoms
Pseudo Atoms    1 [       O]:    0 atoms
Pseudo Atoms    2 [      Oa]:  384 atoms
Pseudo Atoms    3 [      Si]:   96 atoms
Pseudo Atoms    4 [      Al]:   96 atoms
Pseudo Atoms    5 [   C_co2]:   64 atoms
Pseudo Atoms    6 [   O_co2]:  128 atoms
Pseudo Atoms    7 [      Na]:   96 atoms


Current (initial full energy) Energy Status
===========================================================================

Internal energy:
Host stretch energy:                                            0.00000000
Host UreyBradley energy:                                        0.00000000
Host bend energy:                                               0.00000000
Host inversion-bend energy:                                     0.00000000
Host torsion energy:                                            0.00000000
Host improper torsion energy:                                   0.00000000
Host out-of-plane energy:                                       0.00000000
Host stretch/stretch energy:                                    0.00000000
Host bend/bend energy:                                          0.00000000
Host stretch/bend energy:                                       0.00000000
Host stretch/torsion energy:                                    0.00000000
Host bend/torsion energy:                                       0.00000000

Adsorbate stretch energy:                                       0.00000000
Adsorbate UreyBradley energy:                                   0.00000000
Adsorbate bend energy:                                          0.00000000
Adsorbate inversion-bend energy:                                0.00000000
Adsorbate torsion energy:                                       0.00000000
Adsorbate improper torsion energy:                              0.00000000
Adsorbate out-of-plane energy:                                  0.00000000
Adsorbate stretch/stretch energy:                               0.00000000
Adsorbate bend/bend energy:                                     0.00000000
Adsorbate stretch/bend energy:                                  0.00000000
Adsorbate stretch/torsion energy:                               0.00000000
Adsorbate bend/torsion energy:                                  0.00000000
Adsorbate intra VDW energy:                                     0.00000000
Adsorbate intra charge-charge Coulomb energy:                   0.00000000
Adsorbate intra charge-bonddipole Coulomb energy:               0.00000000
Adsorbate intra bonddipole-bonddipole Coulomb energy:           0.00000000

Cation stretch energy:                                          0.00000000
Cation UreyBradley energy:                                      0.00000000
Cation bend energy:                                             0.00000000
Cation inversion-bend energy:                                   0.00000000
Cation torsion energy:                                          0.00000000
Cation improper torsion energy:                                 0.00000000
Cation out-of-plane energy:                                     0.00000000
Cation stretch/stretch energy:                                  0.00000000
Cation bend/bend energy:                                        0.00000000
Cation stretch/bend energy:                                     0.00000000
Cation stretch/torsion energy:                                  0.00000000
Cation bend/torsion energy:                                     0.00000000
Cation intra VDW energy:                                        0.00000000
Cation intra charge-charge Coulomb energy:                      0.00000000
Cation intra charge-bonddipole Coulomb energy:                  0.00000000
Cation intra bonddipole-bonddipole Coulomb energy:              0.00000000

Host/Host energy:                                             0.00000000
	Host/Host VDW energy:                                         0.00000000
	Host/Host Coulomb energy:                                     0.00000000
	Host/Host charge-charge Real energy:                          0.00000000
	Host/Host charge-charge Fourier energy:                       0.00000000
	Host/Host charge-bonddipole Real energy:                      0.00000000
	Host/Host charge-bonddipole Fourier energy:                   0.00000000
	Host/Host bondipole-bonddipole Real energy:                   0.00000000
	Host/Host bondipole-bonddipole Fourier energy:                0.00000000

Host/Adsorbate energy:                                  1483254.77030620
	Host/Adsorbate VDW energy:                              1443543.15179694
	Host/Adsorbate Coulomb energy:                            39711.61850927
	Host/Adsorbate charge-charge Real energy:                 35791.03383182
	Host/Adsorbate charge-charge Fourier energy:               3920.58467744
	Host/Adsorbate charge-bonddipole Real energy:                 0.00000000
	Host/Adsorbate charge-bonddipole Fourier energy:              0.00000000
	Host/Adsorbate bondipole-bonddipole Real energy:              0.00000000
	Host/Adsorbate bondipole-bonddipole Fourier energy:           0.00000000

Host/Cation energy:                                   -25658065.39243518
	Host/Cation VDW energy:                                   40847.47392028
	Host/Cation Coulomb energy:                           -25698912.86635546
	Host/Cation charge-charge Real energy:                  -350823.03852477
	Host/Cation charge-charge Fourier energy:             -25348089.82783068
	Host/Cation charge-bonddipole Real energy:                    0.00000000
	Host/Cation charge-bonddipole Fourier energy:                 0.00000000
	Host/Cation bondipole-bonddipole Real energy:                 0.00000000
	Host/Cation bondipole-bonddipole Fourier energy:              0.00000000

Adsorbate/Adsorbate energy:                                   213188.21413485
	Adsorbate/Adsorbate VDW energy:                               208612.62902196
	Adsorbate/Adsorbate Coulomb energy:                             4575.58511289
	Adsorbate/Adsorbate charge-charge Real energy:                  4291.85054305
	Adsorbate/Adsorbate charge-charge Fourier energy:                283.73456984
	Adsorbate/Adsorbate charge-bonddipole Real energy:                 0.00000000
	Adsorbate/Adsorbate charge-bonddipole Fourier energy:              0.00000000
	Adsorbate/Adsorbate bondipole-bonddipole Real energy:              0.00000000
	Adsorbate/Adsorbate bondipole-bonddipole Fourier energy:           0.00000000

Adsorbate/Cation energy:                                      606259.05393658
	Adsorbate/Cation VDW energy:                                  643774.48681502
	Adsorbate/Cation Coulomb energy:                              -37515.43287844
	Adsorbate/Cation charge-charge Real energy:                   -36794.31499546
	Adsorbate/Cation charge-charge Fourier energy:                  -721.11788299
	Adsorbate/Cation charge-bonddipole Real energy:                    0.00000000
	Adsorbate/Cation charge-bonddipole Fourier energy:                 0.00000000
	Adsorbate/Cation bondipole-bonddipole Real energy:                 0.00000000
	Adsorbate/Cation bondipole-bonddipole Fourier energy:              0.00000000

Cation/Cation energy:                                    13523434.98197990
	Cation/Cation VDW energy:                                       0.00000000
	Cation/Cation Coulomb energy:                            13523434.98197990
	Cation/Cation charge-charge Real energy:                   754867.49329573
	Cation/Cation charge-charge Fourier energy:              12768567.48868417
	Cation/Cation charge-bonddipole Real energy:                    0.00000000
	Cation/Cation charge-bonddipole Fourier energy:                 0.00000000
	Cation/Cation bondipole-bonddipole Real energy:                 0.00000000
	Cation/Cation bondipole-bonddipole Fourier energy:              0.00000000

Polarization energy:
	Host polarization energy:                                     0.00000000
	Adsorbate polarization energy:                                0.00000000
	Cation polarization energy:                                   0.00000000
	Host back-polarization energy:                                     0.00000000
	Adsorbate back-polarization energy:                                0.00000000
	Cation back-polarization energy:                                   0.00000000

Tail-correction energy:                                       0.00000000

Distance constraints energy:                                  0.00000000
Angle constraints energy:                                     0.00000000
Dihedral constraints energy:                                  0.00000000
Inversion-bend constraints energy:                            0.00000000
Out-of-plane distance constraints energy:                     0.00000000
Exclusion constraints energy:                                 0.00000000

===================================================================
Total energy: -9831928.372077653185
	Total Van der Waals: 2336777.741554
	Total Coulomb: -12168706.113632

	Total Polarization: 0.000000







+++++++++++++++++++++++++++++++++++++++++++++++++++++++++++++++++++++++++
Starting simulation
+++++++++++++++++++++++++++++++++++++++++++++++++++++++++++++++++++++++++

[Init] Current cycle: 0 out of 5000
========================================================================================================

Net charge: 2.13163e-14 (F: -36.8064, A: 0, C: 36.8064)
Current Box:  24.55500   0.00000   0.00000 [A]
               0.00000  24.55500   0.00000 [A]
               0.00000   0.00000  24.55500 [A]
Box-lengths:  24.55500  24.55500  24.55500 Box-angles:   90.00000  90.00000  90.00000 [degrees]
Volume: 14805.38875 [A^3]

Loadings per component:
----------------------------------------------------------------------------------------------------------------------------------------------------
Component 0 (sodium), current number of integer/fractional/reaction molecules: 96/0/0, density: 247.53433 [kg/m^3]
	absolute adsorption:  96.00000 [mol/uc],         7.0396 [mol/kg],            161.8378 [mg/g]
	                                               157.7844 [cm^3 STP/g],        241.3345 [cm^3 STP/cm^3]
	excess adsorption:    96.00000 [mol/uc],         7.0396 [mol/kg],            161.8378 [mg/g]
	                                               157.7844 [cm^3 STP/g],        241.3345 [cm^3 STP/cm^3]
----------------------------------------------------------------------------------------------------------------------------------------------------
Component 1 (CO2), current number of integer/fractional/reaction molecules: 64/0/0, density: 315.82782 [kg/m^3]
	absolute adsorption:  64.00000 [mol/uc],         4.6930 [mol/kg],            206.4880 [mg/g]
	                                               105.1896 [cm^3 STP/g],        160.8896 [cm^3 STP/cm^3]
	excess adsorption:    64.00000 [mol/uc],         4.6930 [mol/kg],            206.4880 [mg/g]
	                                               105.1896 [cm^3 STP/g],        160.8896 [cm^3 STP/cm^3]
----------------------------------------------------------------------------------------------------------------------------------------------------
Degrees of freedom: 608 0 320 288
Number of Framework-atoms:    576
Number of Adsorbates:          64 (64 integer, 0 fractional, 0 reaction)
Number of Cations:             96 (96 integer, 0 fractional, 0 reaction

Current total potential energy:          -9831928.3720776532 [K]
	Current Host-Host energy:                     0.0000000000 [K]
	Current Host-Adsorbate energy:          1483254.7703062047 [K]
	Current Host-Cation energy:           -25658065.3924351782 [K]
	Current Adsorbate-Adsorbate energy:      213188.2141348468 [K]
	Current Cation-Cation energy:          13523434.9819798954 [K]
	Current Adsorbate-Cation energy:         606259.0539365784 [K]



[Equilibration] Current cycle: 0 out of 10000
========================================================================================================

Net charge: 2.13163e-14 (F: -36.8064, A: 0, C: 36.8064)
Current Box:  24.55500   0.00000   0.00000 [A]
               0.00000  24.55500   0.00000 [A]
               0.00000   0.00000  24.55500 [A]
Box-lengths:  24.55500  24.55500  24.55500 Box-angles:   90.00000  90.00000  90.00000 [degrees]
Volume: 14805.38875 [A^3]

Total linear momentum:      -0.0000000000 [A]      -0.0000000000 [A]       0.0000000000 [A]

Loadings per component:
----------------------------------------------------------------------------------------------------------------------------------------------------
Component 0 (sodium), current number of integer/fractional/reaction molecules: 96/0/0, density: 247.53433 [kg/m^3]
	absolute adsorption:  96.00000 [mol/uc],         7.0396 [mol/kg],            161.8378 [mg/g]
	                                                157.7844 [cm^3 STP/g],        241.3345 [cm^3 STP/cm^3]
	excess adsorption:    96.00000 [mol/uc],         7.0396 [mol/kg],            161.8378 [mg/g]
	                                                157.7844 [cm^3 STP/g],        241.3345 [cm^3 STP/cm^3]
----------------------------------------------------------------------------------------------------------------------------------------------------
Component 1 (CO2), current number of integer/fractional/reaction molecules: 64/0/0, density: 315.82782 [kg/m^3]
	absolute adsorption:  64.00000 [mol/uc],         4.6930 [mol/kg],            206.4880 [mg/g]
	                                                105.1896 [cm^3 STP/g],        160.8896 [cm^3 STP/cm^3]
	excess adsorption:    64.00000 [mol/uc],         4.6930 [mol/kg],            206.4880 [mg/g]
	                                                105.1896 [cm^3 STP/g],        160.8896 [cm^3 STP/cm^3]
----------------------------------------------------------------------------------------------------------------------------------------------------
Degrees of freedom: 608 0 320 288
Number of Framework-atoms:    576
Number of Adsorbates:          64 (64 integer, 0 fractional, 0 reaction)
Number of Cations:             96 (96 integer, 0 fractional, 0 reaction)

Conserved energy:   -13332789.5286666155 Energy drifts:  0.0000000000           0.0000000000
Temperature:                    545.9837443902
Temperature Adsorbates:         526.4640915396
Temperature Cations:            567.6722475574
Cell temperature:    0.000
Current total kinetic energy:            138002.7057530236 [K]
Current total Nose-Hoover energy:        151810.8202299361 [K]
Current total potential energy:         -13681355.2943987641 [K]
	Current Host-Host energy:                     0.0000000000 [K]
	Current Host-Adsorbate energy:           -56275.9161520353 [K]
	Current Host-Cation energy:           -25951659.6754980087 [K]
	Current Adsorbate-Adsorbate energy:      -17851.6723222326 [K]
	Current Cation-Cation energy:          12556333.8319550678 [K]
	Current Adsorbate-Cation energy:        -211901.8623815577 [K]



[Equilibration] Current cycle: 5000 out of 10000
========================================================================================================

Net charge: 2.13163e-14 (F: -36.8064, A: 0, C: 36.8064)
Current Box:  24.55500   0.00000   0.00000 [A]
               0.00000  24.55500   0.00000 [A]
               0.00000   0.00000  24.55500 [A]
Box-lengths:  24.55500  24.55500  24.55500 Box-angles:   90.00000  90.00000  90.00000 [degrees]
Volume: 14805.38875 [A^3]

Total linear momentum:      -0.2606003372 [A]      -0.2599884811 [A]      -0.0913838509 [A]

Loadings per component:
----------------------------------------------------------------------------------------------------------------------------------------------------
Component 0 (sodium), current number of integer/fractional/reaction molecules: 96/0/0, density: 247.53433 [kg/m^3]
	absolute adsorption:  96.00000 [mol/uc],         7.0396 [mol/kg],            161.8378 [mg/g]
	                                                157.7844 [cm^3 STP/g],        241.3345 [cm^3 STP/cm^3]
	excess adsorption:    96.00000 [mol/uc],         7.0396 [mol/kg],            161.8378 [mg/g]
	                                                157.7844 [cm^3 STP/g],        241.3345 [cm^3 STP/cm^3]
----------------------------------------------------------------------------------------------------------------------------------------------------
Component 1 (CO2), current number of integer/fractional/reaction molecules: 64/0/0, density: 315.82782 [kg/m^3]
	absolute adsorption:  64.00000 [mol/uc],         4.6930 [mol/kg],            206.4880 [mg/g]
	                                                105.1896 [cm^3 STP/g],        160.8896 [cm^3 STP/cm^3]
	excess adsorption:    64.00000 [mol/uc],         4.6930 [mol/kg],            206.4880 [mg/g]
	                                                105.1896 [cm^3 STP/g],        160.8896 [cm^3 STP/cm^3]
----------------------------------------------------------------------------------------------------------------------------------------------------
Degrees of freedom: 608 0 320 288
Number of Framework-atoms:    576
Number of Adsorbates:          64 (64 integer, 0 fractional, 0 reaction)
Number of Cations:             96 (96 integer, 0 fractional, 0 reaction)

Conserved energy:   -13332798.3256652337 Energy drifts:  0.0000007936           0.0000005592
Temperature:                    566.8224258536
Temperature Adsorbates:         589.7385517736
Temperature Cations:            541.3600637202
Cell temperature:    0.000
Current total kinetic energy:            143269.8853271799 [K]
Current total Nose-Hoover energy:        139481.1388565900 [K]
Current total potential energy:         -13672869.8489728086 [K]
	Current Host-Host energy:                     0.0000000000 [K]
	Current Host-Adsorbate energy:           -54336.9434791151 [K]
	Current Host-Cation energy:           -25938055.3269648775 [K]
	Current Adsorbate-Adsorbate energy:      -19781.8407136117 [K]
	Current Cation-Cation energy:          12544072.4562363997 [K]
	Current Adsorbate-Cation energy:        -204768.1940516026 [K]



Average Properties at Current cycle: 0 out of 250000
========================================================================================

Framework surface area:       0.0000000000 [m^2/g]        0.0000000000 [m^2/cm^3]       0.0000000000 [A^2]
	Framework 0 individual surface area:       0.0000000000 [m^2/g]        0.0000000000 [m^2/cm^3]       0.0000000000 [A^2]
	Cation surface area:                       0.0000000000 [m^2/g]        0.0000000000 [m^2/cm^3]       0.0000000000 [A^2]
Compressibility:       0.0000000000 [-]
Henry coefficients
	Component 0: 0 [mol/kg/Pa] (Rosenbluth factor new: 0 [-])
	Component 1: 0 [mol/kg/Pa] (Rosenbluth factor new: 0 [-])
Energy <U_gh>_1-<U_h>_0 from Widom


Current cycle: 0 out of 250000
========================================================================================================

Time run:   0.000000 [ps]   0.000000 [ns] 
Net charge: 2.13163e-14 (F: -36.8064, A: 0, C: 36.8064)
Current Box:  24.55500   0.00000   0.00000 [A]   Average Box:  24.55500   0.00000   0.00000 [A]
               0.00000  24.55500   0.00000 [A]                  0.00000  24.55500   0.00000 [A]
               0.00000   0.00000  24.55500 [A]                  0.00000   0.00000  24.55500 [A]
Box-lengths:   24.55500  24.55500  24.55500 [A] Average:  24.55500  24.55500  24.55500 [A]
Box-angles:   90.00000  90.00000  90.00000 [degrees] Average:  90.00000  90.00000  90.00000 [degrees]
Volume: 14805.38875 [A^3] Average Volume: 14805.38875 [A^3]

Total linear momentum:       0.2988340936 [A]      -0.7989127295 [A]       0.1221341202 [A]

Current Stress: 427.75368  -5.33523 -71.05026 [MPa]   Average Stress: 427753.68430 -5335.22535 -71050.26159 [kPa]
                 -5.33523 526.72339 -30.58919 [MPa]                   -5335.22535 526723.39236 -30589.18910 [kPa]
                -71.05026 -30.58919 450.42292 [MPa]                   -71050.26159 -30589.18910 450422.91876 [kPa]
Average pressure:  468299.9984709495 [kPa]    4621.7616429405 [atm]    4682.9999847095 [bar]

Loadings per component:
----------------------------------------------------------------------------------------------------------------------------------------------------
Component 0 (sodium), current number of integer/fractional/reaction molecules: 96/0/0 (avg.  96.00000), density: 247.53433 (avg. 247.53433) [kg/m^3]
	absolute adsorption:  96.00000 (avg.  96.00000) [mol/uc],   7.0395562309 (avg.   7.0395562309) [mol/kg], 161.8377786500 (avg. 161.8377786500) [mg/g]
	                     157.7844426328 (avg. 157.7844426328) [cm^3 STP/g],  241.3344516153 (avg. 241.3344516153) [cm^3 STP/cm^3]
	excess adsorption:    96.0000000000 (avg.  96.0000000000) [mol/uc],   7.0395562309 (avg.   7.0395562309) [mol/kg], 161.8377786500 (avg. 161.8377786500) [mg/g]
	                     157.7844426328 (avg. 157.7844426328) [cm^3 STP/g],  241.3344516153 (avg. 241.3344516153) [cm^3 STP/cm^3]
Component 1 (CO2), current number of integer/fractional/reaction molecules: 64/0/0 (avg.  64.00000), density: 315.82782 (avg. 315.82782) [kg/m^3]
	absolute adsorption:  64.00000 (avg.  64.00000) [mol/uc],   4.6930374873 (avg.   4.6930374873) [mol/kg], 206.4880177942 (avg. 206.4880177942) [mg/g]
	                     105.1896284218 (avg. 105.1896284218) [cm^3 STP/g],  160.8896344102 (avg. 160.8896344102) [cm^3 STP/cm^3]
	excess adsorption:    64.0000000000 (avg.  64.0000000000) [mol/uc],   4.6930374873 (avg.   4.6930374873) [mol/kg], 206.4880177942 (avg. 206.4880177942) [mg/g]
	                     105.1896284218 (avg. 105.1896284218) [cm^3 STP/g],  160.8896344102 (avg. 160.8896344102) [cm^3 STP/cm^3]
----------------------------------------------------------------------------------------------------------------------------------------------------
Degrees of freedom: 608 0 320 288
Number of Framework-atoms:    576
Number of Adsorbates:          64 (64 integer, 0 fractional, 0 reaction)
Number of Cations:             96 (96 integer, 0 fractional, 0 reaction)

Conserved energy:   -13332793.8951285891 Energy drifts:  0.0000000000           0.0000000000
Temperature:             602.734 (avg.  602.734), Translational (avg.  592.075), Rotational (avg.  642.706)
Temperature Adsorbates:  669.382 (avg.  669.382), Translational (avg.  687.166), Rotational (avg.  642.706)
Temperature Cations:     528.680 (avg.  528.680)
Cell temperature:    0.000 (avg.    0.000)
Current total kinetic energy:            152346.8478293189 [K]
Current total Nose-Hoover energy:        124226.8823713891 [K]
Current total potential energy:         -13665435.8369490523 [K]  (avg.   -13665435.8369490523)
	Current Host-Host energy:                     0.0000000000 [K]  (avg.           0.0000000000)
	Current Host-Adsorbate energy:           -59405.4182316350 [K]  (avg.      -59405.4182316350)
	Current Host-Cation energy:           -25948778.5383459367 [K]  (avg.   -25948778.5383459367)
	Current Adsorbate-Adsorbate energy:      -20276.2215486698 [K]  (avg.      -20276.2215486698)
	Current Cation-Cation energy:          12559819.5624672044 [K]  (avg.    12559819.5624672044)
	Current Adsorbate-Cation energy:        -196795.2212900164 [K]  (avg.     -196795.2212900164)



Current cycle: 5000 out of 250000
========================================================================================================

Time run:   2.500000 [ps]   0.002500 [ns] 
Net charge: 2.13163e-14 (F: -36.8064, A: 0, C: 36.8064)
Current Box:  24.55500   0.00000   0.00000 [A]   Average Box:  24.55500   0.00000   0.00000 [A]
               0.00000  24.55500   0.00000 [A]                  0.00000  24.55500   0.00000 [A]
               0.00000   0.00000  24.55500 [A]                  0.00000   0.00000  24.55500 [A]
Box-lengths:   24.55500  24.55500  24.55500 [A] Average:  24.55500  24.55500  24.55500 [A]
Box-angles:   90.00000  90.00000  90.00000 [degrees] Average:  90.00000  90.00000  90.00000 [degrees]
Volume: 14805.38875 [A^3] Average Volume: 14805.38875 [A^3]

Total linear momentum:       0.2653877908 [A]       0.0606403881 [A]      -0.1930491384 [A]

Current Stress: 483.10709   6.78399 -24.26726 [MPa]   Average Stress: 440983.29640 -12543.09292 -9603.50783 [kPa]
                  6.78399 393.52123  14.07867 [MPa]                   -12543.09292 489875.05152 -5108.99738 [kPa]
                -24.26726  14.07867 506.95644 [MPa]                   -9603.50783 -5108.99738 437621.30307 [kPa]
Average pressure:  456159.8836649741 [kPa]    4501.9480253143 [atm]    4561.5988366497 [bar]

Loadings per component:
----------------------------------------------------------------------------------------------------------------------------------------------------
Component 0 (sodium), current number of integer/fractional/reaction molecules: 96/0/0 (avg.  96.00000), density: 247.53433 (avg. 247.53433) [kg/m^3]
	absolute adsorption:  96.00000 (avg.  96.00000) [mol/uc],   7.0395562309 (avg.   7.0395562309) [mol/kg], 161.8377786500 (avg. 161.8377786500) [mg/g]
	                     157.7844426328 (avg. 157.7844426328) [cm^3 STP/g],  241.3344516153 (avg. 241.3344516153) [cm^3 STP/cm^3]
	excess adsorption:    96.0000000000 (avg.  96.0000000000) [mol/uc],   7.0395562309 (avg.   7.0395562309) [mol/kg], 161.8377786500 (avg. 161.8377786500) [mg/g]
	                     157.7844426328 (avg. 157.7844426328) [cm^3 STP/g],  241.3344516153 (avg. 241.3344516153) [cm^3 STP/cm^3]
Component 1 (CO2), current number of integer/fractional/reaction molecules: 64/0/0 (avg.  64.00000), density: 315.82782 (avg. 315.82782) [kg/m^3]
	absolute adsorption:  64.00000 (avg.  64.00000) [mol/uc],   4.6930374873 (avg.   4.6930374873) [mol/kg], 206.4880177942 (avg. 206.4880177942) [mg/g]
	                     105.1896284218 (avg. 105.1896284218) [cm^3 STP/g],  160.8896344102 (avg. 160.8896344102) [cm^3 STP/cm^3]
	excess adsorption:    64.0000000000 (avg.  64.0000000000) [mol/uc],   4.6930374873 (avg.   4.6930374873) [mol/kg], 206.4880177942 (avg. 206.4880177942) [mg/g]
	                     105.1896284218 (avg. 105.1896284218) [cm^3 STP/g],  160.8896344102 (avg. 160.8896344102) [cm^3 STP/cm^3]
----------------------------------------------------------------------------------------------------------------------------------------------------
Degrees of freedom: 608 0 320 288
Number of Framework-atoms:    576
Number of Adsorbates:          64 (64 integer, 0 fractional, 0 reaction)
Number of Cations:             96 (96 integer, 0 fractional, 0 reaction)

Conserved energy:   -13332795.4572856668 Energy drifts:  0.0000001409           0.0000001946
Temperature:             613.193 (avg.  601.353), Translational (avg.  607.487), Rotational (avg.  578.351)
Temperature Adsorbates:  587.892 (avg.  604.453), Translational (avg.  621.855), Rotational (avg.  578.351)
Temperature Cations:     641.305 (avg.  597.908)
Cell temperature:    0.000 (avg.    0.000)
Current total kinetic energy:            154990.5260502131 [K]
Current total Nose-Hoover energy:        136259.1721291569 [K]
Current total potential energy:         -13683088.5421954393 [K]  (avg.   -13680297.2890131380)
	Current Host-Host energy:                     0.0000000000 [K]  (avg.           0.0000000000)
	Current Host-Adsorbate energy:           -56804.4399241706 [K]  (avg.      -56388.5906916630)
	Current Host-Cation energy:           -25959252.8748866171 [K]  (avg.   -25951005.9425081313)
	Current Adsorbate-Adsorbate energy:      -21855.4016629961 [K]  (avg.      -23022.9364286710)
	Current Cation-Cation energy:          12546317.9396470282 [K]  (avg.    12548005.5788313486)
	Current Adsorbate-Cation energy:        -191493.7653686881 [K]  (avg.     -197885.3982159570)



Average Properties at Current cycle: 10000 out of 250000
========================================================================================

Framework surface area:       0.0000000000 [m^2/g]        0.0000000000 [m^2/cm^3]       0.0000000000 [A^2]
	Framework 0 individual surface area:       0.0000000000 [m^2/g]        0.0000000000 [m^2/cm^3]       0.0000000000 [A^2]
	Cation surface area:                       0.0000000000 [m^2/g]        0.0000000000 [m^2/cm^3]       0.0000000000 [A^2]
Compressibility:       0.0000000000 [-]
Henry coefficients
	Component 0: 0 [mol/kg/Pa] (Rosenbluth factor new: 0 [-])
	Component 1: 0 [mol/kg/Pa] (Rosenbluth factor new: 0 [-])
Energy <U_gh>_1-<U_h>_0 from Widom


Current cycle: 10000 out of 250000
========================================================================================================

Time run:   5.000000 [ps]   0.005000 [ns] 
Net charge: 2.13163e-14 (F: -36.8064, A: 0, C: 36.8064)
Current Box:  24.55500   0.00000   0.00000 [A]   Average Box:  24.55500   0.00000   0.00000 [A]
               0.00000  24.55500   0.00000 [A]                  0.00000  24.55500   0.00000 [A]
               0.00000   0.00000  24.55500 [A]                  0.00000   0.00000  24.55500 [A]
Box-lengths:   24.55500  24.55500  24.55500 [A] Average:  24.55500  24.55500  24.55500 [A]
Box-angles:   90.00000  90.00000  90.00000 [degrees] Average:  90.00000  90.00000  90.00000 [degrees]
Volume: 14805.38875 [A^3] Average Volume: 14805.38875 [A^3]

Total linear momentum:      -0.1805956983 [A]       0.6064559755 [A]       0.1286291393 [A]

Current Stress: 557.15154 -19.67663 -24.71644 [MPa]   Average Stress: 451359.99630 19193.28295 -5721.39485 [kPa]
                -19.67663 488.12362 -37.84054 [MPa]                   19193.28295 466529.19113 -7406.70669 [kPa]
                -24.71644 -37.84054 392.74747 [MPa]                   -5721.39485 -7406.70669 455411.20900 [kPa]
Average pressure:  457766.7988089366 [kPa]    4517.8070447465 [atm]    4577.6679880894 [bar]

Loadings per component:
----------------------------------------------------------------------------------------------------------------------------------------------------
Component 0 (sodium), current number of integer/fractional/reaction molecules: 96/0/0 (avg.  96.00000), density: 247.53433 (avg. 247.53433) [kg/m^3]
	absolute adsorption:  96.00000 (avg.  96.00000) [mol/uc],   7.0395562309 (avg.   7.0395562309) [mol/kg], 161.8377786500 (avg. 161.8377786500) [mg/g]
	                     157.7844426328 (avg. 157.7844426328) [cm^3 STP/g],  241.3344516153 (avg. 241.3344516153) [cm^3 STP/cm^3]
	excess adsorption:    96.0000000000 (avg.  96.0000000000) [mol/uc],   7.0395562309 (avg.   7.0395562309) [mol/kg], 161.8377786500 (avg. 161.8377786500) [mg/g]
	                     157.7844426328 (avg. 157.7844426328) [cm^3 STP/g],  241.3344516153 (avg. 241.3344516153) [cm^3 STP/cm^3]
Component 1 (CO2), current number of integer/fractional/reaction molecules: 64/0/0 (avg.  64.00000), density: 315.82782 (avg. 315.82782) [kg/m^3]
	absolute adsorption:  64.00000 (avg.  64.00000) [mol/uc],   4.6930374873 (avg.   4.6930374873) [mol/kg], 206.4880177942 (avg. 206.4880177942) [mg/g]
	                     105.1896284218 (avg. 105.1896284218) [cm^3 STP/g],  160.8896344102 (avg. 160.8896344102) [cm^3 STP/cm^3]
	excess adsorption:    64.0000000000 (avg.  64.0000000000) [mol/uc],   4.6930374873 (avg.   4.6930374873) [mol/kg], 206.4880177942 (avg. 206.4880177942) [mg/g]
	                     105.1896284218 (avg. 105.1896284218) [cm^3 STP/g],  160.8896344102 (avg. 160.8896344102) [cm^3 STP/cm^3]
----------------------------------------------------------------------------------------------------------------------------------------------------
Degrees of freedom: 608 0 320 288
Number of Framework-atoms:    576
Number of Adsorbates:          64 (64 integer, 0 fractional, 0 reaction)
Number of Cations:             96 (96 integer, 0 fractional, 0 reaction)

Conserved energy:   -13332799.2653164584 Energy drifts:  0.0000004844           0.0000002610
Temperature:             606.443 (avg.  602.353), Translational (avg.  606.503), Rotational (avg.  586.790)
Temperature Adsorbates:  613.475 (avg.  600.333), Translational (avg.  609.362), Rotational (avg.  586.790)
Temperature Cations:     598.629 (avg.  604.597)
Cell temperature:    0.000 (avg.    0.000)
Current total kinetic energy:            153284.2681132174 [K]
Current total Nose-Hoover energy:        145138.5810772745 [K]
Current total potential energy:         -13691719.6731450763 [K]  (avg.   -13681283.3006106652)
	Current Host-Host energy:                     0.0000000000 [K]  (avg.           0.0000000000)
	Current Host-Adsorbate energy:           -52803.3299762279 [K]  (avg.      -56255.0339250712)
	Current Host-Cation energy:           -25953859.9819569103 [K]  (avg.   -25950739.2397313900)
	Current Adsorbate-Adsorbate energy:      -21886.1735080617 [K]  (avg.      -23538.0891576708)
	Current Cation-Cation energy:          12539279.1857109517 [K]  (avg.    12547208.4197205529)
	Current Adsorbate-Cation energy:        -202449.3734148310 [K]  (avg.     -197959.3575171201)



Current cycle: 15000 out of 250000
========================================================================================================

Time run:   7.500000 [ps]   0.007500 [ns] 
Net charge: 2.13163e-14 (F: -36.8064, A: 0, C: 36.8064)
Current Box:  24.55500   0.00000   0.00000 [A]   Average Box:  24.55500   0.00000   0.00000 [A]
               0.00000  24.55500   0.00000 [A]                  0.00000  24.55500   0.00000 [A]
               0.00000   0.00000  24.55500 [A]                  0.00000   0.00000  24.55500 [A]
Box-lengths:   24.55500  24.55500  24.55500 [A] Average:  24.55500  24.55500  24.55500 [A]
Box-angles:   90.00000  90.00000  90.00000 [degrees] Average:  90.00000  90.00000  90.00000 [degrees]
Volume: 14805.38875 [A^3] Average Volume: 14805.38875 [A^3]

Total linear momentum:       0.0227777318 [A]      -0.4244754711 [A]       0.1179908635 [A]

Current Stress: 447.33938 -50.68950  10.20629 [MPa]   Average Stress: 462952.92108 10313.62720 -516.01294 [kPa]
                -50.68950 414.28628 -31.89180 [MPa]                   10313.62720 460940.96796 -15145.71545 [kPa]
                 10.20629 -31.89180 437.20538 [MPa]                   -516.01294 -15145.71545 455988.58326 [kPa]
Average pressure:  459960.8240966513 [kPa]    4539.4603907886 [atm]    4599.6082409665 [bar]

Loadings per component:
----------------------------------------------------------------------------------------------------------------------------------------------------
Component 0 (sodium), current number of integer/fractional/reaction molecules: 96/0/0 (avg.  96.00000), density: 247.53433 (avg. 247.53433) [kg/m^3]
	absolute adsorption:  96.00000 (avg.  96.00000) [mol/uc],   7.0395562309 (avg.   7.0395562309) [mol/kg], 161.8377786500 (avg. 161.8377786500) [mg/g]
	                     157.7844426328 (avg. 157.7844426328) [cm^3 STP/g],  241.3344516153 (avg. 241.3344516153) [cm^3 STP/cm^3]
	excess adsorption:    96.0000000000 (avg.  96.0000000000) [mol/uc],   7.0395562309 (avg.   7.0395562309) [mol/kg], 161.8377786500 (avg. 161.8377786500) [mg/g]
	                     157.7844426328 (avg. 157.7844426328) [cm^3 STP/g],  241.3344516153 (avg. 241.3344516153) [cm^3 STP/cm^3]
Component 1 (CO2), current number of integer/fractional/reaction molecules: 64/0/0 (avg.  64.00000), density: 315.82782 (avg. 315.82782) [kg/m^3]
	absolute adsorption:  64.00000 (avg.  64.00000) [mol/uc],   4.6930374873 (avg.   4.6930374873) [mol/kg], 206.4880177942 (avg. 206.4880177942) [mg/g]
	                     105.1896284218 (avg. 105.1896284218) [cm^3 STP/g],  160.8896344102 (avg. 160.8896344102) [cm^3 STP/cm^3]
	excess adsorption:    64.0000000000 (avg.  64.0000000000) [mol/uc],   4.6930374873 (avg.   4.6930374873) [mol/kg], 206.4880177942 (avg. 206.4880177942) [mg/g]
	                     105.1896284218 (avg. 105.1896284218) [cm^3 STP/g],  160.8896344102 (avg. 160.8896344102) [cm^3 STP/cm^3]
----------------------------------------------------------------------------------------------------------------------------------------------------
Degrees of freedom: 608 0 320 288
Number of Framework-atoms:    576
Number of Adsorbates:          64 (64 integer, 0 fractional, 0 reaction)
Number of Cations:             96 (96 integer, 0 fractional, 0 reaction)

Conserved energy:   -13332793.0691200048 Energy drifts:  0.0000000745           0.0000002342
Temperature:             639.227 (avg.  603.039), Translational (avg.  606.934), Rotational (avg.  588.434)
Temperature Adsorbates:  659.257 (avg.  600.920), Translational (avg.  609.244), Rotational (avg.  588.434)
Temperature Cations:     616.972 (avg.  605.394)
Cell temperature:    0.000 (avg.    0.000)
Current total kinetic energy:            161570.8576671055 [K]
Current total Nose-Hoover energy:        134214.2812476205 [K]
Current total potential energy:         -13688541.0387439746 [K]  (avg.   -13683304.9282685667)
	Current Host-Host energy:                     0.0000000000 [K]  (avg.           0.0000000000)
	Current Host-Adsorbate energy:           -53618.0468160262 [K]  (avg.      -55824.3646385325)
	Current Host-Cation energy:           -25960728.0965387076 [K]  (avg.   -25953069.6432322301)
	Current Adsorbate-Adsorbate energy:      -27188.4686506436 [K]  (avg.      -23296.8640615265)
	Current Cation-Cation energy:          12546007.3618813436 [K]  (avg.    12545574.2100784350)
	Current Adsorbate-Cation energy:        -193013.7886199408 [K]  (avg.     -196688.2664146515)



Average Properties at Current cycle: 20000 out of 250000
========================================================================================

Framework surface area:       0.0000000000 [m^2/g]        0.0000000000 [m^2/cm^3]       0.0000000000 [A^2]
	Framework 0 individual surface area:       0.0000000000 [m^2/g]        0.0000000000 [m^2/cm^3]       0.0000000000 [A^2]
	Cation surface area:                       0.0000000000 [m^2/g]        0.0000000000 [m^2/cm^3]       0.0000000000 [A^2]
Compressibility:       0.0000000000 [-]
Henry coefficients
	Component 0: 0 [mol/kg/Pa] (Rosenbluth factor new: 0 [-])
	Component 1: 0 [mol/kg/Pa] (Rosenbluth factor new: 0 [-])
Energy <U_gh>_1-<U_h>_0 from Widom


Current cycle: 20000 out of 250000
========================================================================================================

Time run:  10.000000 [ps]   0.010000 [ns] 
Net charge: 2.13163e-14 (F: -36.8064, A: 0, C: 36.8064)
Current Box:  24.55500   0.00000   0.00000 [A]   Average Box:  24.55500   0.00000   0.00000 [A]
               0.00000  24.55500   0.00000 [A]                  0.00000  24.55500   0.00000 [A]
               0.00000   0.00000  24.55500 [A]                  0.00000   0.00000  24.55500 [A]
Box-lengths:   24.55500  24.55500  24.55500 [A] Average:  24.55500  24.55500  24.55500 [A]
Box-angles:   90.00000  90.00000  90.00000 [degrees] Average:  90.00000  90.00000  90.00000 [degrees]
Volume: 14805.38875 [A^3] Average Volume: 14805.38875 [A^3]

Total linear momentum:      -0.3530165796 [A]      -0.5516886073 [A]      -0.1893844714 [A]

Current Stress: 547.29384  59.68907 -33.97951 [MPa]   Average Stress: 454402.52272 6944.28165 1642.53306 [kPa]
                 59.68907 543.07775 -21.45451 [MPa]                   6944.28165 462842.30212 -17398.98908 [kPa]
                -33.97951 -21.45451 403.97527 [MPa]                   1642.53306 -17398.98908 451243.88374 [kPa]
Average pressure:  456162.9028619661 [kPa]    4501.9778224719 [atm]    4561.6290286197 [bar]

Loadings per component:
----------------------------------------------------------------------------------------------------------------------------------------------------
Component 0 (sodium), current number of integer/fractional/reaction molecules: 96/0/0 (avg.  96.00000), density: 247.53433 (avg. 247.53433) [kg/m^3]
	absolute adsorption:  96.00000 (avg.  96.00000) [mol/uc],   7.0395562309 (avg.   7.0395562309) [mol/kg], 161.8377786500 (avg. 161.8377786500) [mg/g]
	                     157.7844426328 (avg. 157.7844426328) [cm^3 STP/g],  241.3344516153 (avg. 241.3344516153) [cm^3 STP/cm^3]
	excess adsorption:    96.0000000000 (avg.  96.0000000000) [mol/uc],   7.0395562309 (avg.   7.0395562309) [mol/kg], 161.8377786500 (avg. 161.8377786500) [mg/g]
	                     157.7844426328 (avg. 157.7844426328) [cm^3 STP/g],  241.3344516153 (avg. 241.3344516153) [cm^3 STP/cm^3]
Component 1 (CO2), current number of integer/fractional/reaction molecules: 64/0/0 (avg.  64.00000), density: 315.82782 (avg. 315.82782) [kg/m^3]
	absolute adsorption:  64.00000 (avg.  64.00000) [mol/uc],   4.6930374873 (avg.   4.6930374873) [mol/kg], 206.4880177942 (avg. 206.4880177942) [mg/g]
	                     105.1896284218 (avg. 105.1896284218) [cm^3 STP/g],  160.8896344102 (avg. 160.8896344102) [cm^3 STP/cm^3]
	excess adsorption:    64.0000000000 (avg.  64.0000000000) [mol/uc],   4.6930374873 (avg.   4.6930374873) [mol/kg], 206.4880177942 (avg. 206.4880177942) [mg/g]
	                     105.1896284218 (avg. 105.1896284218) [cm^3 STP/g],  160.8896344102 (avg. 160.8896344102) [cm^3 STP/cm^3]
----------------------------------------------------------------------------------------------------------------------------------------------------
Degrees of freedom: 608 0 320 288
Number of Framework-atoms:    576
Number of Adsorbates:          64 (64 integer, 0 fractional, 0 reaction)
Number of Cations:             96 (96 integer, 0 fractional, 0 reaction)

Conserved energy:   -13332795.7785193268 Energy drifts:  0.0000001699           0.0000002194
Temperature:             622.097 (avg.  602.590), Translational (avg.  604.702), Rotational (avg.  594.673)
[...]
	Block[ 0]            0.00000 [K]
	Block[ 1]            0.00000 [K]
	Block[ 2]            0.00000 [K]
	Block[ 3]            0.00000 [K]
	Block[ 4]            0.00000 [K]
	------------------------------------------------------------------------------
	Average              0.00000 [K] +/-            0.00000 [K]

Average Cation Intra charge-bonddipole Coulomb energy:
====================================
	Block[ 0]            0.00000 [K]
	Block[ 1]            0.00000 [K]
	Block[ 2]            0.00000 [K]
	Block[ 3]            0.00000 [K]
	Block[ 4]            0.00000 [K]
	------------------------------------------------------------------------------
	Average              0.00000 [K] +/-            0.00000 [K]

Average Cation Intra bonddipole-bonddipole Coulomb energy:
====================================
	Block[ 0]            0.00000 [K]
	Block[ 1]            0.00000 [K]
	Block[ 2]            0.00000 [K]
	Block[ 3]            0.00000 [K]
	Block[ 4]            0.00000 [K]
	------------------------------------------------------------------------------
	Average              0.00000 [K] +/-            0.00000 [K]

Average Host-Host energy:
=========================
	Block[ 0] 0.00000            Van der Waals: 0.00000            Coulomb: 0.00000            [K]
	Block[ 1] 0.00000            Van der Waals: 0.00000            Coulomb: 0.00000            [K]
	Block[ 2] 0.00000            Van der Waals: 0.00000            Coulomb: 0.00000            [K]
	Block[ 3] 0.00000            Van der Waals: 0.00000            Coulomb: 0.00000            [K]
	Block[ 4] 0.00000            Van der Waals: 0.00000            Coulomb: 0.00000            [K]
	------------------------------------------------------------------------------
	Average   0.00000            Van der Waals: 0.000000           Coulomb: 0.00000            [K]
	      +/- 0.00000                       +/- 0.000000                +/- 0.00000            [K]

Average Adsorbate-Adsorbate energy:
===================================
	Block[ 0] -21953.65021       Van der Waals: -22166.69798       Coulomb: 213.04777          [K]
	Block[ 1] -21158.87246       Van der Waals: -22409.05742       Coulomb: 1250.18496         [K]
	Block[ 2] -21291.61668       Van der Waals: -22384.44224       Coulomb: 1092.82556         [K]
	Block[ 3] -21206.52858       Van der Waals: -22408.93302       Coulomb: 1202.40443         [K]
	Block[ 4] -21661.77240       Van der Waals: -22898.17449       Coulomb: 1236.40210         [K]
	------------------------------------------------------------------------------
	Average   -21454.48806       Van der Waals: -22453.461029      Coulomb: 998.97296          [K]
	      +/- 424.43271                     +/- 333.536794              +/- 550.79336          [K]

Average Cation-Cation energy:
=============================
	Block[ 0] 12546965.76320     Van der Waals: 0.00000            Coulomb: 12546965.76320     [K]
	Block[ 1] 12555292.76725     Van der Waals: 0.00000            Coulomb: 12555292.76725     [K]
	Block[ 2] 12552497.83322     Van der Waals: 0.00000            Coulomb: 12552497.83322     [K]
	Block[ 3] 12552278.62442     Van der Waals: 0.00000            Coulomb: 12552278.62442     [K]
	Block[ 4] 12550470.94279     Van der Waals: 0.00000            Coulomb: 12550470.94279     [K]
	------------------------------------------------------------------------------
	Average   12551501.18617     Van der Waals: 0.000000           Coulomb: 12551501.18617     [K]
	      +/- 3806.52594                    +/- 0.000000                +/- 3806.52594         [K]

Average Host-Adsorbate energy:
==============================
	Block[ 0] -55462.73552       Van der Waals: -91916.26828       Coulomb: 36453.53276        [K]
	Block[ 1] -54627.53355       Van der Waals: -92310.24321       Coulomb: 37682.70966        [K]
	Block[ 2] -56374.37701       Van der Waals: -92209.48478       Coulomb: 35835.10777        [K]
	Block[ 3] -56329.84396       Van der Waals: -91905.30502       Coulomb: 35575.46107        [K]
	Block[ 4] -55376.77621       Van der Waals: -92441.40059       Coulomb: 37064.62438        [K]
	------------------------------------------------------------------------------
	Average   -55634.25325       Van der Waals: -92156.540377      Coulomb: 36522.28713        [K]
	      +/- 908.22874                     +/- 296.670442              +/- 1077.66958         [K]

Average Host-Cation energy:
===========================
	Block[ 0] -25950863.79221    Van der Waals: 89954.16592        Coulomb: -26040817.95812    [K]
	Block[ 1] -25947508.59771    Van der Waals: 88233.55138        Coulomb: -26035742.14909    [K]
	Block[ 2] -25947012.11325    Van der Waals: 88642.33517        Coulomb: -26035654.44842    [K]
	Block[ 3] -25946482.38138    Van der Waals: 88880.44384        Coulomb: -26035362.82521    [K]
	Block[ 4] -25948326.62357    Van der Waals: 87712.43667        Coulomb: -26036039.06024    [K]
	------------------------------------------------------------------------------
	Average   -25948038.70162    Van der Waals: 88684.586594       Coulomb: -26036723.28822    [K]
	      +/- 2134.18812                    +/- 1038.774069             +/- 2857.41996         [K]

Average Adsorbate-Cation energy:
================================
	Block[ 0] -199578.14339      Van der Waals: -119069.83319      Coulomb: -80508.31020       [K]
	Block[ 1] -203191.22796      Van der Waals: -120019.74018      Coulomb: -83171.48778       [K]
	Block[ 2] -202312.18192      Van der Waals: -119658.06272      Coulomb: -82654.11919       [K]
	Block[ 3] -203120.24049      Van der Waals: -119203.95318      Coulomb: -83916.28731       [K]
	Block[ 4] -203430.21576      Van der Waals: -120279.09393      Coulomb: -83151.12183       [K]
	------------------------------------------------------------------------------
	Average   -202326.40190      Van der Waals: -119646.136642     Coulomb: -82680.26526       [K]
	      +/- 1977.56012                    +/- 641.492891              +/- 1607.78438         [K]

Host polarization energy:
=======================
	Block[ 0]            0.00000 [K]
	Block[ 1]            0.00000 [K]
	Block[ 2]            0.00000 [K]
	Block[ 3]            0.00000 [K]
	Block[ 4]            0.00000 [K]
	------------------------------------------------------------------------------
	Average              0.00000 [K] +/-            0.00000 [K]

Adsorbate polarization energy:
=======================
	Block[ 0]            0.00000 [K]
	Block[ 1]            0.00000 [K]
	Block[ 2]            0.00000 [K]
	Block[ 3]            0.00000 [K]
	Block[ 4]            0.00000 [K]
	------------------------------------------------------------------------------
	Average              0.00000 [K] +/-            0.00000 [K]

Cation polarization energy:
=======================
	Block[ 0]            0.00000 [K]
	Block[ 1]            0.00000 [K]
	Block[ 2]            0.00000 [K]
	Block[ 3]            0.00000 [K]
	Block[ 4]            0.00000 [K]
	------------------------------------------------------------------------------
	Average              0.00000 [K] +/-            0.00000 [K]

Host back-polarization energy:
=======================
	Block[ 0]            0.00000 [K]
	Block[ 1]            0.00000 [K]
	Block[ 2]            0.00000 [K]
	Block[ 3]            0.00000 [K]
	Block[ 4]            0.00000 [K]
	------------------------------------------------------------------------------
	Average              0.00000 [K] +/-            0.00000 [K]

Adsorbate back-polarization energy:
=======================
	Block[ 0]            0.00000 [K]
	Block[ 1]            0.00000 [K]
	Block[ 2]            0.00000 [K]
	Block[ 3]            0.00000 [K]
	Block[ 4]            0.00000 [K]
	------------------------------------------------------------------------------
	Average              0.00000 [K] +/-            0.00000 [K]

Cation back-polarization energy:
=======================
	Block[ 0]            0.00000 [K]
	Block[ 1]            0.00000 [K]
	Block[ 2]            0.00000 [K]
	Block[ 3]            0.00000 [K]
	Block[ 4]            0.00000 [K]
	------------------------------------------------------------------------------
	Average              0.00000 [K] +/-            0.00000 [K]

Tail-correction energy:
=======================
	Block[ 0]            0.00000 [K]
	Block[ 1]            0.00000 [K]
	Block[ 2]            0.00000 [K]
	Block[ 3]            0.00000 [K]
	Block[ 4]            0.00000 [K]
	------------------------------------------------------------------------------
	Average              0.00000 [K] +/-            0.00000 [K]

Distance-constraints energy:
=======================
	Block[ 0]            0.00000 [K]
	Block[ 1]            0.00000 [K]
	Block[ 2]            0.00000 [K]
	Block[ 3]            0.00000 [K]
	Block[ 4]            0.00000 [K]
	------------------------------------------------------------------------------
	Average              0.00000 [K] +/-            0.00000 [K]

Angle-constraints energy:
=======================
	Block[ 0]            0.00000 [K]
	Block[ 1]            0.00000 [K]
	Block[ 2]            0.00000 [K]
	Block[ 3]            0.00000 [K]
	Block[ 4]            0.00000 [K]
	------------------------------------------------------------------------------
	Average              0.00000 [K] +/-            0.00000 [K]

Dihedral-constraints energy:
=======================
	Block[ 0]            0.00000 [K]
	Block[ 1]            0.00000 [K]
	Block[ 2]            0.00000 [K]
	Block[ 3]            0.00000 [K]
	Block[ 4]            0.00000 [K]
	------------------------------------------------------------------------------
	Average              0.00000 [K] +/-            0.00000 [K]

Inversion-bend constraints energy:
=======================
	Block[ 0]            0.00000 [K]
	Block[ 1]            0.00000 [K]
	Block[ 2]            0.00000 [K]
	Block[ 3]            0.00000 [K]
	Block[ 4]            0.00000 [K]
	------------------------------------------------------------------------------
	Average              0.00000 [K] +/-            0.00000 [K]

Out-of-plane-distance constraints energy:
=======================
	Block[ 0]            0.00000 [K]
	Block[ 1]            0.00000 [K]
	Block[ 2]            0.00000 [K]
	Block[ 3]            0.00000 [K]
	Block[ 4]            0.00000 [K]
	------------------------------------------------------------------------------
	Average              0.00000 [K] +/-            0.00000 [K]

Exclusion-constraints energy:
=======================
	Block[ 0]            0.00000 [K]
	Block[ 1]            0.00000 [K]
	Block[ 2]            0.00000 [K]
	Block[ 3]            0.00000 [K]
	Block[ 4]            0.00000 [K]
	------------------------------------------------------------------------------
	Average              0.00000 [K] +/-            0.00000 [K]

Total energy:
=============
	Block[ 0]    -13680892.55813 [K]
	Block[ 1]    -13671193.46443 [K]
	Block[ 2]    -13674492.45564 [K]
	Block[ 3]    -13674860.36999 [K]
	Block[ 4]    -13678324.44515 [K]
	------------------------------------------------------------------------------
	Average      -13675952.65867 [K] +/-         4645.26899 [K]

Number of molecules:
====================

Component 0 [sodium]
-------------------------------------------------------------
	Block[ 0] 96.00000           [-]
	Block[ 1] 96.00000           [-]
	Block[ 2] 96.00000           [-]
	Block[ 3] 96.00000           [-]
	Block[ 4] 96.00000           [-]
	------------------------------------------------------------------------------
	Average loading absolute                             96.0000000000 +/-       0.0000000000 [-]
	Average loading absolute [molecules/unit cell]       96.0000000000 +/-       0.0000000000 [-]
	Average loading absolute [mol/kg framework]                  7.0395562309 +/-       0.0000000000 [-]
	Average loading absolute [milligram/gram framework]        161.8377786500 +/-       0.0000000000 [-]
	Average loading absolute [cm^3 (STP)/gr framework]         157.7844426328 +/-       0.0000000000 [-]
	Average loading absolute [cm^3 (STP)/cm^3 framework]       241.3344516153 +/-       0.0000000000 [-]

	Block[ 0] 96.00000           [-]
	Block[ 1] 96.00000           [-]
	Block[ 2] 96.00000           [-]
	Block[ 3] 96.00000           [-]
	Block[ 4] 96.00000           [-]
	------------------------------------------------------------------------------
	Average loading excess                             96.0000000000 +/-       0.0000000000 [-]
	Average loading excess [molecules/unit cell]       96.0000000000 +/-       0.0000000000 [-]
	Average loading excess [mol/kg framework]                    7.0395562309 +/-       0.0000000000 [-]
	Average loading excess [milligram/gram framework]          161.8377786500 +/-       0.0000000000 [-]
	Average loading excess [cm^3 (STP)/gr framework]           157.7844426328 +/-       0.0000000000 [-]
	Average loading excess [cm^3 (STP)/cm^3 framework]         241.3344516153 +/-       0.0000000000 [-]

Component 1 [CO2]
-------------------------------------------------------------
	Block[ 0] 64.00000           [-]
	Block[ 1] 64.00000           [-]
	Block[ 2] 64.00000           [-]
	Block[ 3] 64.00000           [-]
	Block[ 4] 64.00000           [-]
	------------------------------------------------------------------------------
	Average loading absolute                             64.0000000000 +/-       0.0000000000 [-]
	Average loading absolute [molecules/unit cell]       64.0000000000 +/-       0.0000000000 [-]
	Average loading absolute [mol/kg framework]                  4.6930374873 +/-       0.0000000000 [-]
	Average loading absolute [milligram/gram framework]        206.4880177942 +/-       0.0000000000 [-]
	Average loading absolute [cm^3 (STP)/gr framework]         105.1896284218 +/-       0.0000000000 [-]
	Average loading absolute [cm^3 (STP)/cm^3 framework]       160.8896344102 +/-       0.0000000000 [-]

	Block[ 0] 64.00000           [-]
	Block[ 1] 64.00000           [-]
	Block[ 2] 64.00000           [-]
	Block[ 3] 64.00000           [-]
	Block[ 4] 64.00000           [-]
	------------------------------------------------------------------------------
	Average loading excess                             64.0000000000 +/-       0.0000000000 [-]
	Average loading excess [molecules/unit cell]       64.0000000000 +/-       0.0000000000 [-]
	Average loading excess [mol/kg framework]                    4.6930374873 +/-       0.0000000000 [-]
	Average loading excess [milligram/gram framework]          206.4880177942 +/-       0.0000000000 [-]
	Average loading excess [cm^3 (STP)/gr framework]           105.1896284218 +/-       0.0000000000 [-]
	Average loading excess [cm^3 (STP)/cm^3 framework]         160.8896344102 +/-       0.0000000000 [-]


Average Widom Rosenbluth factor:
================================
	Block[ 0] 0 [-]
	Block[ 1] 0 [-]
	Block[ 2] 0 [-]
	Block[ 3] 0 [-]
	Block[ 4] 0 [-]
	------------------------------------------------------------------------------
	[sodium] Average Widom Rosenbluth-weight:   0 +/- 0.000000 [-]
	Block[ 0] 0 [-]
	Block[ 1] 0 [-]
	Block[ 2] 0 [-]
	Block[ 3] 0 [-]
	Block[ 4] 0 [-]
	------------------------------------------------------------------------------
	[CO2] Average Widom Rosenbluth-weight:   0 +/- 0.000000 [-]

Average Widom chemical potential:
=================================
	Block[ 0] 0 [-]
	Block[ 1] 0 [-]
	Block[ 2] 0 [-]
	Block[ 3] 0 [-]
	Block[ 4] 0 [-]
	------------------------------------------------------------------------------
	[sodium] Average chemical potential:   0 +/- 0.000000 [K]
	Block[ 0] 0 [-]
	Block[ 1] 0 [-]
	Block[ 2] 0 [-]
	Block[ 3] 0 [-]
	Block[ 4] 0 [-]
	------------------------------------------------------------------------------
	[CO2] Average chemical potential:   0 +/- 0.000000 [K]

Average Widom Ideal-gas contribution:
=====================================
	Block[ 0] 0 [-]
	Block[ 1] 0 [-]
	Block[ 2] 0 [-]
	Block[ 3] 0 [-]
	Block[ 4] 0 [-]
	------------------------------------------------------------------------------
	[sodium] Average Widom Ideal-gas chemical potential:   0 +/- 0.000000 [-]
	Block[ 0] 0 [-]
	Block[ 1] 0 [-]
	Block[ 2] 0 [-]
	Block[ 3] 0 [-]
	Block[ 4] 0 [-]
	------------------------------------------------------------------------------
	[CO2] Average Widom Ideal-gas chemical potential:   0 +/- 0.000000 [-]

Average Widom excess contribution:
==================================
	Block[ 0] 0 [-]
	Block[ 1] 0 [-]
	Block[ 2] 0 [-]
	Block[ 3] 0 [-]
	Block[ 4] 0 [-]
	------------------------------------------------------------------------------
	[sodium] Average Widom excess chemical potential:   0 +/- 0.000000 [-]
	Block[ 0] 0 [-]
	Block[ 1] 0 [-]
	Block[ 2] 0 [-]
	Block[ 3] 0 [-]
	Block[ 4] 0 [-]
	------------------------------------------------------------------------------
	[CO2] Average Widom excess chemical potential:   0 +/- 0.000000 [-]

Average Gibbs Widom Rosenbluth factor:
======================================
	Block[ 0] 0 [-]
	Block[ 1] 0 [-]
	Block[ 2] 0 [-]
	Block[ 3] 0 [-]
	Block[ 4] 0 [-]
	------------------------------------------------------------------------------
	[sodium] Average Gibbs Widom Rosenbluth-weight:   0 +/- 0.000000 [-]
	Block[ 0] 0 [-]
	Block[ 1] 0 [-]
	Block[ 2] 0 [-]
	Block[ 3] 0 [-]
	Block[ 4] 0 [-]
	------------------------------------------------------------------------------
	[CO2] Average Gibbs Widom Rosenbluth-weight:   0 +/- 0.000000 [-]

Average Gibbs Widom chemical potential:
=======================================
	Block[ 0] 0 [-]
	Block[ 1] 0 [-]
	Block[ 2] 0 [-]
	Block[ 3] 0 [-]
	Block[ 4] 0 [-]
	------------------------------------------------------------------------------
	[sodium] Average Gibbs chemical potential:   0 +/- 0.000000 [K]
	Block[ 0] 0 [-]
	Block[ 1] 0 [-]
	Block[ 2] 0 [-]
	Block[ 3] 0 [-]
	Block[ 4] 0 [-]
	------------------------------------------------------------------------------
	[CO2] Average Gibbs chemical potential:   0 +/- 0.000000 [K]

Average Gibbs Widom Ideal-gas contribution:
===========================================
	Block[ 0] 0 [-]
	Block[ 1] 0 [-]
	Block[ 2] 0 [-]
	Block[ 3] 0 [-]
	Block[ 4] 0 [-]
	------------------------------------------------------------------------------
	[sodium] Average Gibbs Ideal-gas chemical potential:   0 +/- 0.000000 [-]
	Block[ 0] 0 [-]
	Block[ 1] 0 [-]
	Block[ 2] 0 [-]
	Block[ 3] 0 [-]
	Block[ 4] 0 [-]
	------------------------------------------------------------------------------
	[CO2] Average Gibbs Ideal-gas chemical potential:   0 +/- 0.000000 [-]

Average Gibbs Widom excess contribution:
===========================================
	Block[ 0] 0 [-]
	Block[ 1] 0 [-]
	Block[ 2] 0 [-]
	Block[ 3] 0 [-]
	Block[ 4] 0 [-]
	------------------------------------------------------------------------------
	[sodium] Average Gibbs excess chemical potential:   0 +/- 0.000000 [-]
	Block[ 0] 0 [-]
	Block[ 1] 0 [-]
	Block[ 2] 0 [-]
	Block[ 3] 0 [-]
	Block[ 4] 0 [-]
	------------------------------------------------------------------------------
	[CO2] Average Gibbs excess chemical potential:   0 +/- 0.000000 [-]

Average Henry coefficient:
==========================
	Block[ 0] 0 [mol/kg/Pa]
	Block[ 1] 0 [mol/kg/Pa]
	Block[ 2] 0 [mol/kg/Pa]
	Block[ 3] 0 [mol/kg/Pa]
	Block[ 4] 0 [mol/kg/Pa]
	------------------------------------------------------------------------------
	[sodium] Average Henry coefficient:  0 +/- 0 [mol/kg/Pa]
	Block[ 0] 0 [mol/kg/Pa]
	Block[ 1] 0 [mol/kg/Pa]
	Block[ 2] 0 [mol/kg/Pa]
	Block[ 3] 0 [mol/kg/Pa]
	Block[ 4] 0 [mol/kg/Pa]
	------------------------------------------------------------------------------
	[CO2] Average Henry coefficient:  0 +/- 0 [mol/kg/Pa]

Average adsorption energy <U_gh>_1-<U_h>_0 obtained from Widom-insertion:
(Note: the total heat of adsorption is dH=<U_gh>_1-<U_h>_0 - <U_g> - RT)
=========================================================================

Simulation finished,  0 warnings


Tue May 18 15:54:12 2021
Simulation finished on Tuesday, May 18.
The end time was 03:54 PM.

