Compiler and run-time data
===========================================================================
RASPA 2.0.45
Compiled as a 64-bits application
Compiler: gcc Apple LLVM 12.0.5 (clang-1205.0.22.9)
Compile Date = May 18 2021, Compile Time = 12:54:12

Thu May 20 10:20:08 2021
Simulation started on Thursday, May 20.
The start time was 10:20 AM.

Cpu data:    x86_64
Cpu Model:   MacPro7,1
Host name:   MacPro.local
OS release:  20.4.0
OS type:     Darwin
OS version:  20E232


Simulation
===========================================================================
Dimensions: 3
Random number seed: 1621498783
RASPA directory set to: /Users/dubbelda/RASPA/simulations/
String appended to output-files: 
Number of cycles: 0
Number of initializing cycles: 0
Number of equilibration cycles: 0
Print every: 100
Triclinic boundary condition applied
Timestep: 0.000500
	Degrees of freedom:                        0
	Translational Degrees of freedom:          0
	Rotational Degrees of freedom:             0
	Degrees of freedom Framework:              0


Mutual consistent basic set of units:
======================================
Unit of temperature: Kelvin
Unit of length:      1e-10 [m]
Unit of time:        1e-12 [s]
Unit of mass:        1.66054e-27 [kg]
Unit of charge:      1.60218e-19 [C/particle]

Derived units and their conversion factors:
===========================================
Unit of energy:              1.66054e-23 [J]
Unit of force:               1.66054e-13 [N]
Unit of pressure:            1.66054e+07 [Pa]
Unit of velocity:            100 [m/s]
Unit of acceleration:        1e-08 [m^2/s]
Unit of diffusion:           1e-08 [m^2/s]
Unit of dipole moment:       1.60218e-29 [C.m]
Unit of electric potential:  0.000103643 [V]
Unit of electric field:      1.03643e+06 [V]
Unit of polarizability:      1.54587e-35 [-]
Unit of Coulomb potential:   167101.0800066561  [K]
Unit of dielectric constant: 0.0000154587       [s^2 C^2/(kg m^3)]
Unit of wave vectors:        5.3088374589       [cm^1]
Boltzmann constant:          0.8314464919       [-]

Internal conversion factors:
===========================================
Energy to Kelvin:                                    1.2027242847
FH correction factor                                 2.0211930949
Heat capacity conversion factor:                    10.0000088723
From Debye to internal units:                        4.8032067991
Isothermal compressibility conversion factor:        0.0000000602

Energy conversion factors:
===========================================
From mdyne/A to kcal/mol/A^2:           143.933
From mdyne/A to kj/mol/A^2:             602.214
From mdyne/A to K/A^2:                  72429.7
From mdyne A/rad^2 to kcal/mol/deg^2:   0.0438444


Properties computed
===========================================================================
Movies: no
Radial Distribution Function: no
Number of molecules GCMC histogram: no
Histogram of the molecule positions: no
Free energy profiles: no
Pore Size Distribution Function: no
End-to-end distance: no
Histogram of the energy of the system: no
Compute thermodynamic factors: no
Framework spacing histograms: no
Residence times histograms: no
Distance histograms: no
Bend Angle histograms: no
Dihedral angle histograms: no
Angle between planes histograms: no
Molecule properties: no
Infra-red spectra: no
Mean-squared displacement using modified order-N algorithm: no
Velocity-autocorrelation function modified order-N algorithm: no
Rotational velocity-autocorrelation function modified order-N algorithm: no
Molecular orientation-autocorrelation function modified order-N algorithm: no
Bond orientation-autocorrelation function modified order-N algorithm: no
Mean-squared displacement (conventional algorithm): no
Velocity-autocorrelation function (conventional algorithm): no
3D density grid for adsorbates: no
Compute cation an/or adsorption sites: no
dcTST snapshots: no
Compute pressure and stress: no


VTK
===========================================================================
VTK fractional-range position framework atoms: [-0.001000,1.001000] [-0.001000,1.001000] [-0.001000,1.001000]
VTK fractional-range position framework bonds: [-0.151000,1.151000] [-0.151000,1.151000] [-0.151000,1.151000]
VTK fractional-range com-position adsorbate molecules: [-0.101000,1.101000] [-0.101000,1.101000] [-0.101000,1.101000]
VTK fractional-range com-position cation molecules: [-0.101000,1.101000] [-0.101000,1.101000] [-0.101000,1.101000]
	3D free energy grid made for the full simulation-cell


Thermo/Baro-stat NHC parameters
===========================================================================
External temperature: 298 [K]
Beta: 0.00403598 [energy unit]
External Pressure: 0 [Pa]


Thermostat chain-length: 3
Timescale parameter for thermostat: 0.150000 [ps]
Barostat chain-length:   3
Timescale parameter for barostat:   0.150000 [ps]

Number of Yoshida-Suzuki decomposition steps: 5
Number of respa steps: 5


Method and settings for electrostatics
===============================================================================
Dielectric constant of the medium : 1.000000
Charge from charge-equilibration: yes
Symmetrize the charges of the framework: no
Ewald summation is used (exact solution of a periodic system)
Relative precision                : 1e-06
Alpha convergence parameter       : 0.265058
kvec (x,y,z)                      : 7 7 7


CFC-RXMC parameters
===========================================================================
Number of reactions: 0


Rattle parameters
===========================================================================
Distance constraint type: r^2-r^2_0
Bend angle constraint type: theta-theta_0
Dihedral angle constraint type: phi-phi_0
Inversion-bend angle constraint type: chi-chi_0
Out-of-plane distance constraint type: r-r_0


Spectra parameters
===========================================================================
Compute normal modes: no


Minimization parameters
===========================================================================
Generalized coordinates are: Cartesian center-of-mass, elements of the orientational matrix p1,p2,p3 and strain
Potential derivatives are evaluated: analytically
Translation of the system is removed from the generalized Hessian: no
Rotation of the system is removed from the generalized Hessian: no
Maximum step-length: 0.3
Convergence factor: 1
Maximum number of minimization steps: 10000
Use gradients in the line-minimizations: yes
RMS gradient tolerance: 1e-06
Maximum gradient tolerance: 1e-06

Distance constraints: 0
Angle constraints: 0
Dihedral constraints: 0

Improper dihedral constraints: 0

Inversion-bend constraints: 0

Out-of-plane constraints: 0

Harmonic distance constraints: 0
Harmonic angle constraints: 0
Harmonic dihedral constraints: 0

Dihedral mid-point measurements: 0

All framework atoms are fixed

Fixed adsorbate atoms:  
Fixed adsorbate groups (center-of-mass):  
Fixed adsorbate groups (orientation):  

Fixed cation atoms:  
Fixed cation groups (center-of-mass):  
Fixed cation groups (orientation):  


dcTST parameters
===========================================================================
Free energy profiles computed: no
Free energy profiles written every 5000 cycles
Free energy mapping: mapped to a,b,c-coordinates
BarrierPosition:       0.0000000000       0.0000000000       0.0000000000
BarrierNormal:         0.0000000000       0.0000000000       0.0000000000
Start with a molecule on top of the barrier: no
Maximum distance to barrier (e.g. distance to minumum free energy):       0.0000000000 [A]
Maximum trajectory time:      10.0000000000 [ps]
Each configuration is used with 5 different initial velocities


Cbmc parameters
===========================================================================
Biasing method: using only the VDW part
Number of trial positions:                                       10
Number of trial positions (reinsertion):                         10
Number of trial positions (partial reinsertion):                 10
Number of trial positions (identity-change):                     10
Number of trial positions (Gibbs particle transfer):             10
Number of trial positions (insertion/deletion):                  10
Number of trial positions (Widom insertion):                     10
Number of trial positions coupled Torsion-selection:             100
Number of trial positions first bead:                            10
Number of trial positions first bead (reinsertion):              10
Number of trial positions first bead (partial reinsertion):      10
Number of trial positions first bead (identity-change):          10
Number of trial positions first bead (Gibbs particle transfer):  10
Number of trial positions first bead (insertion/deletion):       10
Number of trial positions first bead (Widom insertion):          10
Number of trial moves per open bead:                             150
Target acceptance ratio small-mc scheme:                         0.400000
Energy overlap criteria:                                         1e+07
Minimal Rosenbluth factor:                                       1e-150


Pseudo atoms: 21
===========================================================================
Pseudo Atom[   0] Name UNIT     Oxidation:          Element: H    pdb-name: H    Scat. Types:   1   1 Mass=1.000000000  B-factor:0.000   
                 Charge=1.000000000          Polarization=0.000000000  [A^3] (considered a charged atom and no polarization)  Interactions: yes
                 Anisotropic factor:    0.000 [-] (Absolute), Radius:    1.000 [A], Framework-atom:  no
Pseudo Atom[   1] Name He       Oxidation: +0       Element: He   pdb-name: He   Scat. Types:   3   2 Mass=4.002602000  B-factor:1.000   
                 Charge=0.000000000          Polarization=0.000000000  [A^3] (considered a chargeless atom and no polarization)  Interactions: yes
                 Anisotropic factor:    0.000 [-] (Relative), Radius:    1.000 [A], Framework-atom:  no
Pseudo Atom[   2] Name C_co2    Oxidation: +0       Element: C    pdb-name: C    Scat. Types:   7   6 Mass=12.000000000 B-factor:1.000   
                 Charge=0.651200000          Polarization=0.000000000  [A^3] (considered a charged atom and no polarization)  Interactions: yes
                 Anisotropic factor:    0.000 [-] (Relative), Radius:    0.720 [A], Framework-atom:  no
Pseudo Atom[   3] Name O_co2    Oxidation: +0       Element: O    pdb-name: O    Scat. Types:   9   8 Mass=15.999400000 B-factor:1.000   
                 Charge=-0.325600000         Polarization=0.000000000  [A^3] (considered a charged atom and no polarization)  Interactions: yes
                 Anisotropic factor:    0.000 [-] (Relative), Radius:    0.680 [A], Framework-atom:  no
Pseudo Atom[   4] Name O_o2     Oxidation: +0       Element: O    pdb-name: O    Scat. Types:   9   8 Mass=15.999400000 B-factor:1.000   
                 Charge=-0.112000000         Polarization=0.000000000  [A^3] (considered a charged atom and no polarization)  Interactions: yes
                 Anisotropic factor:    0.000 [-] (Relative), Radius:    0.700 [A], Framework-atom:  no
Pseudo Atom[   5] Name O_com    Oxidation: +0       Element: -    pdb-name: O    Scat. Types:   0   8 Mass=0.000000000  B-factor:1.000   
                 Charge=0.224000000          Polarization=0.000000000  [A^3] (considered a charged atom and no polarization)  Interactions: yes
                 Anisotropic factor:    0.000 [-] (Relative), Radius:    0.700 [A], Framework-atom:  no
Pseudo Atom[   6] Name N_n2     Oxidation: +0       Element: N    pdb-name: N    Scat. Types:   8   7 Mass=14.006740000 B-factor:1.000   
                 Charge=-0.405000000         Polarization=0.000000000  [A^3] (considered a charged atom and no polarization)  Interactions: yes
                 Anisotropic factor:    0.000 [-] (Relative), Radius:    0.700 [A], Framework-atom:  no
Pseudo Atom[   7] Name N_com    Oxidation: +0       Element: -    pdb-name: N    Scat. Types:   0   7 Mass=0.000000000  B-factor:1.000   
                 Charge=0.810000000          Polarization=0.000000000  [A^3] (considered a charged atom and no polarization)  Interactions: yes
                 Anisotropic factor:    0.000 [-] (Relative), Radius:    0.700 [A], Framework-atom:  no
Pseudo Atom[   8] Name Ar       Oxidation: +0       Element: Ar   pdb-name: Ar   Scat. Types:  19  18 Mass=39.948000000 B-factor:1.000   
                 Charge=0.000000000          Polarization=0.000000000  [A^3] (considered a chargeless atom and no polarization)  Interactions: yes
                 Anisotropic factor:    0.000 [-] (Relative), Radius:    0.700 [A], Framework-atom:  no
Pseudo Atom[   9] Name CH4      Oxidation: +0       Element: C    pdb-name: C    Scat. Types:   7   6 Mass=16.042460000 B-factor:1.000   
                 Charge=0.000000000          Polarization=0.000000000  [A^3] (considered a chargeless atom and no polarization)  Interactions: yes
                 Anisotropic factor:    0.000 [-] (Relative), Radius:    1.000 [A], Framework-atom:  no
Pseudo Atom[  10] Name CH3      Oxidation: +0       Element: C    pdb-name: C    Scat. Types:   7   6 Mass=15.034520000 B-factor:1.000   
                 Charge=0.000000000          Polarization=0.000000000  [A^3] (considered a chargeless atom and no polarization)  Interactions: yes
                 Anisotropic factor:    0.000 [-] (Relative), Radius:    1.000 [A], Framework-atom:  no
Pseudo Atom[  11] Name CH2      Oxidation: +0       Element: C    pdb-name: C    Scat. Types:   7   6 Mass=14.026580000 B-factor:1.000   
                 Charge=0.000000000          Polarization=0.000000000  [A^3] (considered a chargeless atom and no polarization)  Interactions: yes
                 Anisotropic factor:    0.000 [-] (Relative), Radius:    1.000 [A], Framework-atom:  no
Pseudo Atom[  12] Name CH       Oxidation: +0       Element: C    pdb-name: C    Scat. Types:   7   6 Mass=13.018640000 B-factor:1.000   
                 Charge=0.000000000          Polarization=0.000000000  [A^3] (considered a chargeless atom and no polarization)  Interactions: yes
                 Anisotropic factor:    0.000 [-] (Relative), Radius:    1.000 [A], Framework-atom:  no
Pseudo Atom[  13] Name C        Oxidation: +0       Element: C    pdb-name: C    Scat. Types:   7   6 Mass=12.000000000 B-factor:1.000   
                 Charge=0.000000000          Polarization=0.000000000  [A^3] (considered a chargeless atom and no polarization)  Interactions: yes
                 Anisotropic factor:    0.000 [-] (Relative), Radius:    1.000 [A], Framework-atom:  no
Pseudo Atom[  14] Name Zn1      Oxidation: 2+       Element: Zn   pdb-name: Zn   Scat. Types:  31  30 Mass=65.408728088 B-factor:0.000   
                 Charge=1.211500825  (-na-)  Polarization=5.750000000  [A^3] (considered a charged atom and no polarization)  Interactions: yes
                 Anisotropic factor:    0.000 [-] (Absolute), Radius:    1.200 [A], Framework-atom: yes (charge definition not found)
Pseudo Atom[  15] Name O1       Oxidation:          Element: O    pdb-name: O    Scat. Types:   9   8 Mass=15.999404927 B-factor:0.000   
                 Charge=-0.967299595 (-na-)  Polarization=0.802000000  [A^3] (considered a charged atom and no polarization)  Interactions: yes
                 Anisotropic factor:    0.000 [-] (Absolute), Radius:    0.640 [A], Framework-atom: yes (charge definition not found)
Pseudo Atom[  16] Name O2       Oxidation:          Element: O    pdb-name: O    Scat. Types:   9   8 Mass=15.999404927 B-factor:0.000   
                 Charge=-0.482018287 (-na-)  Polarization=0.802000000  [A^3] (considered a charged atom and no polarization)  Interactions: yes
                 Anisotropic factor:    0.000 [-] (Absolute), Radius:    0.640 [A], Framework-atom: yes (charge definition not found)
Pseudo Atom[  17] Name C1       Oxidation:          Element: C    pdb-name: C    Scat. Types:   7   6 Mass=12.010735897 B-factor:0.000   
                 Charge=0.321093452  (-na-)  Polarization=1.760000000  [A^3] (considered a charged atom and no polarization)  Interactions: yes
                 Anisotropic factor:    0.000 [-] (Absolute), Radius:    0.750 [A], Framework-atom: yes (charge definition not found)
Pseudo Atom[  18] Name C2       Oxidation:          Element: C    pdb-name: C    Scat. Types:   7   6 Mass=12.010735897 B-factor:0.000   
                 Charge=-0.064321192 (-na-)  Polarization=1.760000000  [A^3] (considered a charged atom and no polarization)  Interactions: yes
                 Anisotropic factor:    0.000 [-] (Absolute), Radius:    0.750 [A], Framework-atom: yes (charge definition not found)
Pseudo Atom[  19] Name C3       Oxidation:          Element: C    pdb-name: C    Scat. Types:   7   6 Mass=12.010735897 B-factor:0.000   
                 Charge=-0.023392304 (-na-)  Polarization=1.760000000  [A^3] (considered a charged atom and no polarization)  Interactions: yes
                 Anisotropic factor:    0.000 [-] (Absolute), Radius:    0.750 [A], Framework-atom: yes (charge definition not found)
Pseudo Atom[  20] Name H1       Oxidation:          Element: H    pdb-name: H    Scat. Types:   1   1 Mass=1.007940754  B-factor:0.000   
                 Charge=0.053799152  (-na-)  Polarization=0.666793000  [A^3] (considered a charged atom and no polarization)  Interactions: yes
                 Anisotropic factor:    0.000 [-] (Absolute), Radius:    0.320 [A], Framework-atom: yes (charge definition not found)


Forcefield: ExampleMOFsForceField
===========================================================================
Minimal distance: 1
CutOff VDW : 12.000000 (144.000000)
CutOff VDW switching on: 10.800000 (116.640000)
CutOff charge-charge : 12.000000 (144.000000)
CutOff charge-charge switching on: 7.800000 (60.840000)
CutOff charge-bonddipole : 12.000000 (144.000000)
CutOff charge-bondipole switching on: 8.400000 (70.560000)
CutOff bonddipole-bonddipole : 12.000000 (144.000000)
CutOff bonddipole-bondipole switching on: 9.000000 (81.000000)
Polarization is neglected
All potentials are shifted to zero at the Cutoff

General mixing rule: Lorentz-Berthelot mixing rules are used FIRST for cross terms
0 cross terms are overwritten using the individual mixing rules from the file 'force_field_mixing_rules.def'
and then 0 terms are overwritten using the specific interactions from the file 'force_field.def'

The force field and all the interactions:
     He -      He [LENNARD_JONES] p_0/k_B:  10.90000 [K], p_1: 2.64000 [A], shift/k_B:  -0.00494280 [K], tailcorrection: no
     He -   C_co2 [LENNARD_JONES] p_0/k_B:  18.06294 [K], p_1: 2.69250 [A], shift/k_B:  -0.00921806 [K], tailcorrection: no
     He -   O_co2 [LENNARD_JONES] p_0/k_B:  30.55837 [K], p_1: 2.82850 [A], shift/k_B:  -0.02095875 [K], tailcorrection: no
     He -    O_o2 [LENNARD_JONES] p_0/k_B:  22.91120 [K], p_1: 2.83657 [A], shift/k_B:  -0.01598491 [K], tailcorrection: no
     He -   O_com [ZERO_POTENTIAL]
     He -    N_n2 [LENNARD_JONES] p_0/k_B:  20.43155 [K], p_1: 2.97300 [A], shift/k_B:  -0.01889482 [K], tailcorrection: no
     He -   N_com [ZERO_POTENTIAL]
     He -      Ar [LENNARD_JONES] p_0/k_B:  36.77449 [K], p_1: 3.01000 [A], shift/k_B:  -0.03662773 [K], tailcorrection: no
     He -     CH4 [LENNARD_JONES] p_0/k_B:  41.56501 [K], p_1: 3.18000 [A], shift/k_B:  -0.05755893 [K], tailcorrection: no
     He -     CH3 [LENNARD_JONES] p_0/k_B:  34.31035 [K], p_1: 3.20000 [A], shift/k_B:  -0.04933343 [K], tailcorrection: no
     He -     CH2 [LENNARD_JONES] p_0/k_B:  24.70627 [K], p_1: 3.30000 [A], shift/k_B:  -0.04272436 [K], tailcorrection: no
     He -      CH [LENNARD_JONES] p_0/k_B:  13.61249 [K], p_1: 3.65500 [A], shift/k_B:  -0.04343978 [K], tailcorrection: no
     He -       C [LENNARD_JONES] p_0/k_B:   2.95296 [K], p_1: 4.51000 [A], shift/k_B:  -0.03319436 [K], tailcorrection: no
     He -     Zn1 [LENNARD_JONES] p_0/k_B:  26.07971 [K], p_1: 2.55077 [A], shift/k_B:  -0.00962206 [K], tailcorrection: no
     He -      O1 [LENNARD_JONES] p_0/k_B:  22.91120 [K], p_1: 2.83657 [A], shift/k_B:  -0.01598491 [K], tailcorrection: no
     He -      O2 [LENNARD_JONES] p_0/k_B:  22.91120 [K], p_1: 2.83657 [A], shift/k_B:  -0.01598491 [K], tailcorrection: no
     He -      C1 [LENNARD_JONES] p_0/k_B:  22.83928 [K], p_1: 3.05649 [A], shift/k_B:  -0.02493896 [K], tailcorrection: no
     He -      C2 [LENNARD_JONES] p_0/k_B:  22.83928 [K], p_1: 3.05649 [A], shift/k_B:  -0.02493896 [K], tailcorrection: no
     He -      C3 [LENNARD_JONES] p_0/k_B:  22.83928 [K], p_1: 3.05649 [A], shift/k_B:  -0.02493896 [K], tailcorrection: no
     He -      H1 [LENNARD_JONES] p_0/k_B:   9.13090 [K], p_1: 2.74321 [A], shift/k_B:  -0.00521169 [K], tailcorrection: no
  C_co2 -   C_co2 [LENNARD_JONES] p_0/k_B:  29.93300 [K], p_1: 2.74500 [A], shift/k_B:  -0.01715199 [K], tailcorrection: no
  C_co2 -   O_co2 [LENNARD_JONES] p_0/k_B:  50.63981 [K], p_1: 2.88100 [A], shift/k_B:  -0.03878296 [K], tailcorrection: no
  C_co2 -    O_o2 [LENNARD_JONES] p_0/k_B:  37.96731 [K], p_1: 2.88908 [A], shift/k_B:  -0.02956995 [K], tailcorrection: no
  C_co2 -   O_com [ZERO_POTENTIAL]
  C_co2 -    N_n2 [LENNARD_JONES] p_0/k_B:  33.85815 [K], p_1: 3.02550 [A], shift/k_B:  -0.03477820 [K], tailcorrection: no
  C_co2 -   N_com [ZERO_POTENTIAL]
  C_co2 -      Ar [LENNARD_JONES] p_0/k_B:  60.94085 [K], p_1: 3.06250 [A], shift/k_B:  -0.06733139 [K], tailcorrection: no
  C_co2 -     CH4 [LENNARD_JONES] p_0/k_B:  68.87946 [K], p_1: 3.23250 [A], shift/k_B:  -0.10522708 [K], tailcorrection: no
  C_co2 -     CH3 [LENNARD_JONES] p_0/k_B:  56.85740 [K], p_1: 3.25250 [A], shift/k_B:  -0.09013451 [K], tailcorrection: no
  C_co2 -     CH2 [LENNARD_JONES] p_0/k_B:  40.94201 [K], p_1: 3.35250 [A], shift/k_B:  -0.07783014 [K], tailcorrection: no
  C_co2 -      CH [LENNARD_JONES] p_0/k_B:  22.55795 [K], p_1: 3.70750 [A], shift/k_B:  -0.07841175 [K], tailcorrection: no
  C_co2 -       C [LENNARD_JONES] p_0/k_B:   4.89351 [K], p_1: 4.56250 [A], shift/k_B:  -0.05895165 [K], tailcorrection: no
  C_co2 -     Zn1 [LENNARD_JONES] p_0/k_B:  43.21800 [K], p_1: 2.60328 [A], shift/k_B:  -0.01801823 [K], tailcorrection: no
  C_co2 -      O1 [LENNARD_JONES] p_0/k_B:  37.96731 [K], p_1: 2.88908 [A], shift/k_B:  -0.02956995 [K], tailcorrection: no
  C_co2 -      O2 [LENNARD_JONES] p_0/k_B:  37.96731 [K], p_1: 2.88908 [A], shift/k_B:  -0.02956995 [K], tailcorrection: no
  C_co2 -      C1 [LENNARD_JONES] p_0/k_B:  37.84811 [K], p_1: 3.10900 [A], shift/k_B:  -0.04577259 [K], tailcorrection: no
  C_co2 -      C2 [LENNARD_JONES] p_0/k_B:  37.84811 [K], p_1: 3.10900 [A], shift/k_B:  -0.04577259 [K], tailcorrection: no
  C_co2 -      C3 [LENNARD_JONES] p_0/k_B:  37.84811 [K], p_1: 3.10900 [A], shift/k_B:  -0.04577259 [K], tailcorrection: no
  C_co2 -      H1 [LENNARD_JONES] p_0/k_B:  15.13127 [K], p_1: 2.79571 [A], shift/k_B:  -0.00967679 [K], tailcorrection: no
  O_co2 -   O_co2 [LENNARD_JONES] p_0/k_B:  85.67100 [K], p_1: 3.01700 [A], shift/k_B:  -0.08652638 [K], tailcorrection: no
  O_co2 -    O_o2 [LENNARD_JONES] p_0/k_B:  64.23202 [K], p_1: 3.02508 [A], shift/k_B:  -0.06592187 [K], tailcorrection: no
  O_co2 -   O_com [ZERO_POTENTIAL]
  O_co2 -    N_n2 [LENNARD_JONES] p_0/k_B:  57.28026 [K], p_1: 3.16150 [A], shift/k_B:  -0.07659340 [K], tailcorrection: no
  O_co2 -   N_com [ZERO_POTENTIAL]
  O_co2 -      Ar [LENNARD_JONES] p_0/k_B: 103.09802 [K], p_1: 3.19850 [A], shift/k_B:  -0.14782408 [K], tailcorrection: no
  O_co2 -     CH4 [LENNARD_JONES] p_0/k_B: 116.52834 [K], p_1: 3.36850 [A], shift/k_B:  -0.22793491 [K], tailcorrection: no
  O_co2 -     CH3 [LENNARD_JONES] p_0/k_B:  96.18975 [K], p_1: 3.38850 [A], shift/k_B:  -0.19495125 [K], tailcorrection: no
  O_co2 -     CH2 [LENNARD_JONES] p_0/k_B:  69.26454 [K], p_1: 3.48850 [A], shift/k_B:  -0.16712968 [K], tailcorrection: no
  O_co2 -      CH [LENNARD_JONES] p_0/k_B:  38.16290 [K], p_1: 3.84350 [A], shift/k_B:  -0.16462890 [K], tailcorrection: no
  O_co2 -       C [LENNARD_JONES] p_0/k_B:   8.27870 [K], p_1: 4.69850 [A], shift/k_B:  -0.11888367 [K], tailcorrection: no
  O_co2 -     Zn1 [LENNARD_JONES] p_0/k_B:  73.11499 [K], p_1: 2.73928 [A], shift/k_B:  -0.04137436 [K], tailcorrection: no
  O_co2 -      O1 [LENNARD_JONES] p_0/k_B:  64.23202 [K], p_1: 3.02508 [A], shift/k_B:  -0.06592187 [K], tailcorrection: no
  O_co2 -      O2 [LENNARD_JONES] p_0/k_B:  64.23202 [K], p_1: 3.02508 [A], shift/k_B:  -0.06592187 [K], tailcorrection: no
  O_co2 -      C1 [LENNARD_JONES] p_0/k_B:  64.03037 [K], p_1: 3.24499 [A], shift/k_B:  -0.10010894 [K], tailcorrection: no
  O_co2 -      C2 [LENNARD_JONES] p_0/k_B:  64.03037 [K], p_1: 3.24499 [A], shift/k_B:  -0.10010894 [K], tailcorrection: no
  O_co2 -      C3 [LENNARD_JONES] p_0/k_B:  64.03037 [K], p_1: 3.24499 [A], shift/k_B:  -0.10010894 [K], tailcorrection: no
  O_co2 -      H1 [LENNARD_JONES] p_0/k_B:  25.59866 [K], p_1: 2.93171 [A], shift/k_B:  -0.02176825 [K], tailcorrection: no
   O_o2 -    O_o2 [LENNARD_JONES] p_0/k_B:  48.15810 [K], p_1: 3.03315 [A], shift/k_B:  -0.05022176 [K], tailcorrection: no
   O_o2 -   O_com [ZERO_POTENTIAL]
   O_o2 -    N_n2 [LENNARD_JONES] p_0/k_B:  42.94600 [K], p_1: 3.16958 [A], shift/k_B:  -0.05831146 [K], tailcorrection: no
   O_o2 -   N_com [ZERO_POTENTIAL]
   O_o2 -      Ar [LENNARD_JONES] p_0/k_B:  77.29797 [K], p_1: 3.20657 [A], shift/k_B:  -0.11252029 [K], tailcorrection: no
   O_o2 -     CH4 [LENNARD_JONES] p_0/k_B:  87.36738 [K], p_1: 3.37657 [A], shift/k_B:  -0.17336627 [K], tailcorrection: no
   O_o2 -     CH3 [LENNARD_JONES] p_0/k_B:  72.11848 [K], p_1: 3.39657 [A], shift/k_B:  -0.14826646 [K], tailcorrection: no
   O_o2 -     CH2 [LENNARD_JONES] p_0/k_B:  51.93124 [K], p_1: 3.49657 [A], shift/k_B:  -0.12705519 [K], tailcorrection: no
   O_o2 -      CH [LENNARD_JONES] p_0/k_B:  28.61272 [K], p_1: 3.85157 [A], shift/k_B:  -0.12499330 [K], tailcorrection: no
   O_o2 -       C [LENNARD_JONES] p_0/k_B:   6.20697 [K], p_1: 4.70657 [A], shift/k_B:  -0.09005301 [K], tailcorrection: no
   O_o2 -     Zn1 [LENNARD_JONES] p_0/k_B:  54.81813 [K], p_1: 2.74735 [A], shift/k_B:  -0.03157316 [K], tailcorrection: no
   O_o2 -      O1 [LENNARD_JONES] p_0/k_B:  48.15810 [K], p_1: 3.03315 [A], shift/k_B:  -0.05022176 [K], tailcorrection: no
   O_o2 -      O2 [LENNARD_JONES] p_0/k_B:  48.15810 [K], p_1: 3.03315 [A], shift/k_B:  -0.05022176 [K], tailcorrection: no
   O_o2 -      C1 [LENNARD_JONES] p_0/k_B:  48.00691 [K], p_1: 3.25307 [A], shift/k_B:  -0.07618410 [K], tailcorrection: no
   O_o2 -      C2 [LENNARD_JONES] p_0/k_B:  48.00691 [K], p_1: 3.25307 [A], shift/k_B:  -0.07618410 [K], tailcorrection: no
   O_o2 -      C3 [LENNARD_JONES] p_0/k_B:  48.00691 [K], p_1: 3.25307 [A], shift/k_B:  -0.07618410 [K], tailcorrection: no
   O_o2 -      H1 [LENNARD_JONES] p_0/k_B:  19.19265 [K], p_1: 2.93979 [A], shift/k_B:  -0.01659232 [K], tailcorrection: no
  O_com -   O_com [ZERO_POTENTIAL]
  O_com -    N_n2 [ZERO_POTENTIAL]
  O_com -   N_com [ZERO_POTENTIAL]
  O_com -      Ar [ZERO_POTENTIAL]
  O_com -     CH4 [ZERO_POTENTIAL]
  O_com -     CH3 [ZERO_POTENTIAL]
  O_com -     CH2 [ZERO_POTENTIAL]
  O_com -      CH [ZERO_POTENTIAL]
  O_com -       C [ZERO_POTENTIAL]
  O_com -     Zn1 [ZERO_POTENTIAL]
  O_com -      O1 [ZERO_POTENTIAL]
  O_com -      O2 [ZERO_POTENTIAL]
  O_com -      C1 [ZERO_POTENTIAL]
  O_com -      C2 [ZERO_POTENTIAL]
  O_com -      C3 [ZERO_POTENTIAL]
  O_com -      H1 [ZERO_POTENTIAL]
   N_n2 -    N_n2 [LENNARD_JONES] p_0/k_B:  38.29800 [K], p_1: 3.30600 [A], shift/k_B:  -0.06695388 [K], tailcorrection: no
   N_n2 -   N_com [ZERO_POTENTIAL]
   N_n2 -      Ar [LENNARD_JONES] p_0/k_B:  68.93209 [K], p_1: 3.34300 [A], shift/k_B:  -0.12882767 [K], tailcorrection: no
   N_n2 -     CH4 [LENNARD_JONES] p_0/k_B:  77.91170 [K], p_1: 3.51300 [A], shift/k_B:  -0.19605171 [K], tailcorrection: no
   N_n2 -     CH3 [LENNARD_JONES] p_0/k_B:  64.31317 [K], p_1: 3.53300 [A], shift/k_B:  -0.16743696 [K], tailcorrection: no
   N_n2 -     CH2 [LENNARD_JONES] p_0/k_B:  46.31078 [K], p_1: 3.63300 [A], shift/k_B:  -0.14253201 [K], tailcorrection: no
   N_n2 -      CH [LENNARD_JONES] p_0/k_B:  25.51599 [K], p_1: 3.98800 [A], shift/k_B:  -0.13731894 [K], tailcorrection: no
   N_n2 -       C [LENNARD_JONES] p_0/k_B:   5.53520 [K], p_1: 4.84300 [A], shift/k_B:  -0.09526024 [K], tailcorrection: no
   N_n2 -     Zn1 [LENNARD_JONES] p_0/k_B:  48.88522 [K], p_1: 2.88377 [A], shift/k_B:  -0.03765604 [K], tailcorrection: no
   N_n2 -      O1 [LENNARD_JONES] p_0/k_B:  42.94600 [K], p_1: 3.16958 [A], shift/k_B:  -0.05831146 [K], tailcorrection: no
   N_n2 -      O2 [LENNARD_JONES] p_0/k_B:  42.94600 [K], p_1: 3.16958 [A], shift/k_B:  -0.05831146 [K], tailcorrection: no
   N_n2 -      C1 [LENNARD_JONES] p_0/k_B:  42.81118 [K], p_1: 3.38950 [A], shift/k_B:  -0.08691987 [K], tailcorrection: no
   N_n2 -      C2 [LENNARD_JONES] p_0/k_B:  42.81118 [K], p_1: 3.38950 [A], shift/k_B:  -0.08691987 [K], tailcorrection: no
   N_n2 -      C3 [LENNARD_JONES] p_0/k_B:  42.81118 [K], p_1: 3.38950 [A], shift/k_B:  -0.08691987 [K], tailcorrection: no
   N_n2 -      H1 [LENNARD_JONES] p_0/k_B:  17.11545 [K], p_1: 3.07621 [A], shift/k_B:  -0.01942377 [K], tailcorrection: no
  N_com -   N_com [ZERO_POTENTIAL]
  N_com -      Ar [ZERO_POTENTIAL]
  N_com -     CH4 [ZERO_POTENTIAL]
  N_com -     CH3 [ZERO_POTENTIAL]
  N_com -     CH2 [ZERO_POTENTIAL]
  N_com -      CH [ZERO_POTENTIAL]
  N_com -       C [ZERO_POTENTIAL]
  N_com -     Zn1 [ZERO_POTENTIAL]
  N_com -      O1 [ZERO_POTENTIAL]
  N_com -      O2 [ZERO_POTENTIAL]
  N_com -      C1 [ZERO_POTENTIAL]
  N_com -      C2 [ZERO_POTENTIAL]
  N_com -      C3 [ZERO_POTENTIAL]
  N_com -      H1 [ZERO_POTENTIAL]
     Ar -      Ar [LENNARD_JONES] p_0/k_B: 124.07000 [K], p_1: 3.38000 [A], shift/k_B:  -0.24769804 [K], tailcorrection: no
     Ar -     CH4 [LENNARD_JONES] p_0/k_B: 140.23229 [K], p_1: 3.55000 [A], shift/k_B:  -0.37575039 [K], tailcorrection: no
     Ar -     CH3 [LENNARD_JONES] p_0/k_B: 115.75647 [K], p_1: 3.57000 [A], shift/k_B:  -0.32079374 [K], tailcorrection: no
     Ar -     CH2 [LENNARD_JONES] p_0/k_B:  83.35418 [K], p_1: 3.67000 [A], shift/k_B:  -0.27260937 [K], tailcorrection: no
     Ar -      CH [LENNARD_JONES] p_0/k_B:  45.92592 [K], p_1: 4.02500 [A], shift/k_B:  -0.26122023 [K], tailcorrection: no
     Ar -       C [LENNARD_JONES] p_0/k_B:   9.96273 [K], p_1: 4.88000 [A], shift/k_B:  -0.17943247 [K], tailcorrection: no
     Ar -     Zn1 [LENNARD_JONES] p_0/k_B:  87.98789 [K], p_1: 2.92077 [A], shift/k_B:  -0.07316337 [K], tailcorrection: no
     Ar -      O1 [LENNARD_JONES] p_0/k_B:  77.29797 [K], p_1: 3.20657 [A], shift/k_B:  -0.11252029 [K], tailcorrection: no
     Ar -      O2 [LENNARD_JONES] p_0/k_B:  77.29797 [K], p_1: 3.20657 [A], shift/k_B:  -0.11252029 [K], tailcorrection: no
     Ar -      C1 [LENNARD_JONES] p_0/k_B:  77.05530 [K], p_1: 3.42650 [A], shift/k_B:  -0.16697066 [K], tailcorrection: no
     Ar -      C2 [LENNARD_JONES] p_0/k_B:  77.05530 [K], p_1: 3.42650 [A], shift/k_B:  -0.16697066 [K], tailcorrection: no
     Ar -      C3 [LENNARD_JONES] p_0/k_B:  77.05530 [K], p_1: 3.42650 [A], shift/k_B:  -0.16697066 [K], tailcorrection: no
     Ar -      H1 [LENNARD_JONES] p_0/k_B:  30.80589 [K], p_1: 3.11321 [A], shift/k_B:  -0.03755989 [K], tailcorrection: no
    CH4 -     CH4 [LENNARD_JONES] p_0/k_B: 158.50000 [K], p_1: 3.72000 [A], shift/k_B:  -0.56217796 [K], tailcorrection: no
    CH4 -     CH3 [LENNARD_JONES] p_0/k_B: 130.83577 [K], p_1: 3.74000 [A], shift/k_B:  -0.47921501 [K], tailcorrection: no
    CH4 -     CH2 [LENNARD_JONES] p_0/k_B:  94.21253 [K], p_1: 3.84000 [A], shift/k_B:  -0.40420524 [K], tailcorrection: no
    CH4 -      CH [LENNARD_JONES] p_0/k_B:  51.90857 [K], p_1: 4.19500 [A], shift/k_B:  -0.37827707 [K], tailcorrection: no
    CH4 -       C [LENNARD_JONES] p_0/k_B:  11.26055 [K], p_1: 5.05000 [A], shift/k_B:  -0.24880626 [K], tailcorrection: no
    CH4 -     Zn1 [LENNARD_JONES] p_0/k_B:  99.44985 [K], p_1: 3.09077 [A], shift/k_B:  -0.11610587 [K], tailcorrection: no
    CH4 -      O1 [LENNARD_JONES] p_0/k_B:  87.36738 [K], p_1: 3.37657 [A], shift/k_B:  -0.17336627 [K], tailcorrection: no
    CH4 -      O2 [LENNARD_JONES] p_0/k_B:  87.36738 [K], p_1: 3.37657 [A], shift/k_B:  -0.17336627 [K], tailcorrection: no
    CH4 -      C1 [LENNARD_JONES] p_0/k_B:  87.09310 [K], p_1: 3.59649 [A], shift/k_B:  -0.25230052 [K], tailcorrection: no
    CH4 -      C2 [LENNARD_JONES] p_0/k_B:  87.09310 [K], p_1: 3.59649 [A], shift/k_B:  -0.25230052 [K], tailcorrection: no
    CH4 -      C3 [LENNARD_JONES] p_0/k_B:  87.09310 [K], p_1: 3.59649 [A], shift/k_B:  -0.25230052 [K], tailcorrection: no
    CH4 -      H1 [LENNARD_JONES] p_0/k_B:  34.81889 [K], p_1: 3.28321 [A], shift/k_B:  -0.05839790 [K], tailcorrection: no
    CH3 -     CH3 [LENNARD_JONES] p_0/k_B: 108.00000 [K], p_1: 3.76000 [A], shift/k_B:  -0.40842485 [K], tailcorrection: no
    CH3 -     CH2 [LENNARD_JONES] p_0/k_B:  77.76889 [K], p_1: 3.86000 [A], shift/k_B:  -0.34420794 [K], tailcorrection: no
    CH3 -      CH [LENNARD_JONES] p_0/k_B:  42.84857 [K], p_1: 4.21500 [A], shift/k_B:  -0.32127575 [K], tailcorrection: no
    CH3 -       C [LENNARD_JONES] p_0/k_B:   9.29516 [K], p_1: 5.07000 [A], shift/k_B:  -0.21028090 [K], tailcorrection: no
    CH3 -     Zn1 [LENNARD_JONES] p_0/k_B:  82.09210 [K], p_1: 3.11077 [A], shift/k_B:  -0.09962164 [K], tailcorrection: no
    CH3 -      O1 [LENNARD_JONES] p_0/k_B:  72.11848 [K], p_1: 3.39657 [A], shift/k_B:  -0.14826646 [K], tailcorrection: no
    CH3 -      O2 [LENNARD_JONES] p_0/k_B:  72.11848 [K], p_1: 3.39657 [A], shift/k_B:  -0.14826646 [K], tailcorrection: no
    CH3 -      C1 [LENNARD_JONES] p_0/k_B:  71.89207 [K], p_1: 3.61649 [A], shift/k_B:  -0.21530553 [K], tailcorrection: no
    CH3 -      C2 [LENNARD_JONES] p_0/k_B:  71.89207 [K], p_1: 3.61649 [A], shift/k_B:  -0.21530553 [K], tailcorrection: no
    CH3 -      C3 [LENNARD_JONES] p_0/k_B:  71.89207 [K], p_1: 3.61649 [A], shift/k_B:  -0.21530553 [K], tailcorrection: no
    CH3 -      H1 [LENNARD_JONES] p_0/k_B:  28.74168 [K], p_1: 3.30321 [A], shift/k_B:  -0.04999342 [K], tailcorrection: no
    CH2 -     CH2 [LENNARD_JONES] p_0/k_B:  56.00000 [K], p_1: 3.96000 [A], shift/k_B:  -0.28891522 [K], tailcorrection: no
    CH2 -      CH [LENNARD_JONES] p_0/k_B:  30.85450 [K], p_1: 4.31500 [A], shift/k_B:  -0.26621710 [K], tailcorrection: no
    CH2 -       C [LENNARD_JONES] p_0/k_B:   6.69328 [K], p_1: 5.17000 [A], shift/k_B:  -0.17012512 [K], tailcorrection: no
    CH2 -     Zn1 [LENNARD_JONES] p_0/k_B:  59.11307 [K], p_1: 3.21077 [A], shift/k_B:  -0.08672731 [K], tailcorrection: no
    CH2 -      O1 [LENNARD_JONES] p_0/k_B:  51.93124 [K], p_1: 3.49657 [A], shift/k_B:  -0.12705519 [K], tailcorrection: no
    CH2 -      O2 [LENNARD_JONES] p_0/k_B:  51.93124 [K], p_1: 3.49657 [A], shift/k_B:  -0.12705519 [K], tailcorrection: no
    CH2 -      C1 [LENNARD_JONES] p_0/k_B:  51.76821 [K], p_1: 3.71650 [A], shift/k_B:  -0.18258013 [K], tailcorrection: no
    CH2 -      C2 [LENNARD_JONES] p_0/k_B:  51.76821 [K], p_1: 3.71650 [A], shift/k_B:  -0.18258013 [K], tailcorrection: no
    CH2 -      C3 [LENNARD_JONES] p_0/k_B:  51.76821 [K], p_1: 3.71650 [A], shift/k_B:  -0.18258013 [K], tailcorrection: no
    CH2 -      H1 [LENNARD_JONES] p_0/k_B:  20.69638 [K], p_1: 3.40321 [A], shift/k_B:  -0.04305002 [K], tailcorrection: no
     CH -      CH [LENNARD_JONES] p_0/k_B:  17.00000 [K], p_1: 4.67000 [A], shift/k_B:  -0.23540268 [K], tailcorrection: no
     CH -       C [LENNARD_JONES] p_0/k_B:   3.68782 [K], p_1: 5.52500 [A], shift/k_B:  -0.13918063 [K], tailcorrection: no
     CH -     Zn1 [LENNARD_JONES] p_0/k_B:  32.56972 [K], p_1: 3.56577 [A], shift/k_B:  -0.08962126 [K], tailcorrection: no
     CH -      O1 [LENNARD_JONES] p_0/k_B:  28.61272 [K], p_1: 3.85157 [A], shift/k_B:  -0.12499330 [K], tailcorrection: no
     CH -      O2 [LENNARD_JONES] p_0/k_B:  28.61272 [K], p_1: 3.85157 [A], shift/k_B:  -0.12499330 [K], tailcorrection: no
     CH -      C1 [LENNARD_JONES] p_0/k_B:  28.52289 [K], p_1: 4.07149 [A], shift/k_B:  -0.17379067 [K], tailcorrection: no
     CH -      C2 [LENNARD_JONES] p_0/k_B:  28.52289 [K], p_1: 4.07149 [A], shift/k_B:  -0.17379067 [K], tailcorrection: no
     CH -      C3 [LENNARD_JONES] p_0/k_B:  28.52289 [K], p_1: 4.07149 [A], shift/k_B:  -0.17379067 [K], tailcorrection: no
     CH -      H1 [LENNARD_JONES] p_0/k_B:  11.40315 [K], p_1: 3.75821 [A], shift/k_B:  -0.04300051 [K], tailcorrection: no
      C -       C [LENNARD_JONES] p_0/k_B:   0.80000 [K], p_1: 6.38000 [A], shift/k_B:  -0.07064236 [K], tailcorrection: no
      C -     Zn1 [LENNARD_JONES] p_0/k_B:   7.06536 [K], p_1: 4.42077 [A], shift/k_B:  -0.07047101 [K], tailcorrection: no
      C -      O1 [LENNARD_JONES] p_0/k_B:   6.20697 [K], p_1: 4.70657 [A], shift/k_B:  -0.09005301 [K], tailcorrection: no
      C -      O2 [LENNARD_JONES] p_0/k_B:   6.20697 [K], p_1: 4.70657 [A], shift/k_B:  -0.09005301 [K], tailcorrection: no
      C -      C1 [LENNARD_JONES] p_0/k_B:   6.18748 [K], p_1: 4.92650 [A], shift/k_B:  -0.11793170 [K], tailcorrection: no
      C -      C2 [LENNARD_JONES] p_0/k_B:   6.18748 [K], p_1: 4.92650 [A], shift/k_B:  -0.11793170 [K], tailcorrection: no
      C -      C3 [LENNARD_JONES] p_0/k_B:   6.18748 [K], p_1: 4.92650 [A], shift/k_B:  -0.11793170 [K], tailcorrection: no
      C -      H1 [LENNARD_JONES] p_0/k_B:   2.47369 [K], p_1: 4.61321 [A], shift/k_B:  -0.03183707 [K], tailcorrection: no
    Zn1 -     Zn1 [LENNARD_JONES] p_0/k_B:  62.39920 [K], p_1: 2.46155 [A], shift/k_B:  -0.01859393 [K], tailcorrection: no
    Zn1 -      O1 [LENNARD_JONES] p_0/k_B:  54.81813 [K], p_1: 2.74735 [A], shift/k_B:  -0.03157316 [K], tailcorrection: no
    Zn1 -      O2 [LENNARD_JONES] p_0/k_B:  54.81813 [K], p_1: 2.74735 [A], shift/k_B:  -0.03157316 [K], tailcorrection: no
    Zn1 -      C1 [LENNARD_JONES] p_0/k_B:  54.64603 [K], p_1: 2.96727 [A], shift/k_B:  -0.04995446 [K], tailcorrection: no
    Zn1 -      C2 [LENNARD_JONES] p_0/k_B:  54.64603 [K], p_1: 2.96727 [A], shift/k_B:  -0.04995446 [K], tailcorrection: no
    Zn1 -      C3 [LENNARD_JONES] p_0/k_B:  54.64603 [K], p_1: 2.96727 [A], shift/k_B:  -0.04995446 [K], tailcorrection: no
    Zn1 -      H1 [LENNARD_JONES] p_0/k_B:  21.84690 [K], p_1: 2.65399 [A], shift/k_B:  -0.01022592 [K], tailcorrection: no
     O1 -      O1 [LENNARD_JONES] p_0/k_B:  48.15810 [K], p_1: 3.03315 [A], shift/k_B:  -0.05022176 [K], tailcorrection: no
     O1 -      O2 [LENNARD_JONES] p_0/k_B:  48.15810 [K], p_1: 3.03315 [A], shift/k_B:  -0.05022176 [K], tailcorrection: no
     O1 -      C1 [LENNARD_JONES] p_0/k_B:  48.00691 [K], p_1: 3.25307 [A], shift/k_B:  -0.07618410 [K], tailcorrection: no
     O1 -      C2 [LENNARD_JONES] p_0/k_B:  48.00691 [K], p_1: 3.25307 [A], shift/k_B:  -0.07618410 [K], tailcorrection: no
     O1 -      C3 [LENNARD_JONES] p_0/k_B:  48.00691 [K], p_1: 3.25307 [A], shift/k_B:  -0.07618410 [K], tailcorrection: no
     O1 -      H1 [LENNARD_JONES] p_0/k_B:  19.19265 [K], p_1: 2.93979 [A], shift/k_B:  -0.01659232 [K], tailcorrection: no
     O2 -      O2 [LENNARD_JONES] p_0/k_B:  48.15810 [K], p_1: 3.03315 [A], shift/k_B:  -0.05022176 [K], tailcorrection: no
     O2 -      C1 [LENNARD_JONES] p_0/k_B:  48.00691 [K], p_1: 3.25307 [A], shift/k_B:  -0.07618410 [K], tailcorrection: no
     O2 -      C2 [LENNARD_JONES] p_0/k_B:  48.00691 [K], p_1: 3.25307 [A], shift/k_B:  -0.07618410 [K], tailcorrection: no
     O2 -      C3 [LENNARD_JONES] p_0/k_B:  48.00691 [K], p_1: 3.25307 [A], shift/k_B:  -0.07618410 [K], tailcorrection: no
     O2 -      H1 [LENNARD_JONES] p_0/k_B:  19.19265 [K], p_1: 2.93979 [A], shift/k_B:  -0.01659232 [K], tailcorrection: no
     C1 -      C1 [LENNARD_JONES] p_0/k_B:  47.85620 [K], p_1: 3.47299 [A], shift/k_B:  -0.11242855 [K], tailcorrection: no
     C1 -      C2 [LENNARD_JONES] p_0/k_B:  47.85620 [K], p_1: 3.47299 [A], shift/k_B:  -0.11242855 [K], tailcorrection: no
     C1 -      C3 [LENNARD_JONES] p_0/k_B:  47.85620 [K], p_1: 3.47299 [A], shift/k_B:  -0.11242855 [K], tailcorrection: no
     C1 -      H1 [LENNARD_JONES] p_0/k_B:  19.13240 [K], p_1: 3.15970 [A], shift/k_B:  -0.02549626 [K], tailcorrection: no
     C2 -      C2 [LENNARD_JONES] p_0/k_B:  47.85620 [K], p_1: 3.47299 [A], shift/k_B:  -0.11242855 [K], tailcorrection: no
     C2 -      C3 [LENNARD_JONES] p_0/k_B:  47.85620 [K], p_1: 3.47299 [A], shift/k_B:  -0.11242855 [K], tailcorrection: no
     C2 -      H1 [LENNARD_JONES] p_0/k_B:  19.13240 [K], p_1: 3.15970 [A], shift/k_B:  -0.02549626 [K], tailcorrection: no
     C3 -      C3 [LENNARD_JONES] p_0/k_B:  47.85620 [K], p_1: 3.47299 [A], shift/k_B:  -0.11242855 [K], tailcorrection: no
     C3 -      H1 [LENNARD_JONES] p_0/k_B:  19.13240 [K], p_1: 3.15970 [A], shift/k_B:  -0.02549626 [K], tailcorrection: no
     H1 -      H1 [LENNARD_JONES] p_0/k_B:   7.64893 [K], p_1: 2.84642 [A], shift/k_B:  -0.00544866 [K], tailcorrection: no


MoleculeDefinitions:
===========================================================================
No components defined in 'simulation.input'


Framework Status
===========================================================================
Lowenstein's rule obeyed by framework
	Framework is modelled as: rigid

	Number of charges:                               0
	Number of bonddipoles:                           0


System Properties
===========================================================================
Unit cell size: 25.832000 25.832000 25.832000
Cell angles (radians)  alpha: 1.570796 beta: 1.570796 gamma: 1.570796
Cell angles (degrees)  alpha: 90.000000 beta: 90.000000 gamma: 90.000000
Number of unitcells [a]: 1
Number of unitcells [b]: 1
Number of unitcells [c]: 1

TRICLINIC Boundary conditions: alpha!=90 or beta!=90 or gamma!=90

Cartesian axis A is collinear with crystallographic axis a
Cartesian axis B is collinear with (axb)xA
Cartesian axis C is collinear with (axb)

lengths of cell vectors:
 25.83200  25.83200  25.83200
cosines of cell angles:
  0.00000   0.00000   0.00000
perpendicular cell widths:
 25.83200  25.83200  25.83200
volume of the cell: 17237.492730368002 (A^3)

Orthogonalization matrix Box
Transforms fractional coordinates abc into orthonormal Cartesian coordinates xyz
Deorthogonalization matrix InverseBox
Transforms orthonormal Cartesian coordinates xyz into fractional coordinates xyz

Box[0]:
	   25.832000000000     0.000000000000     0.000000000000
	    0.000000000000    25.832000000000     0.000000000000
	    0.000000000000     0.000000000000    25.832000000000

Inverse box[0]:
	    0.038711675441    -0.000000000000    -0.000000000000
	    0.000000000000     0.038711675441    -0.000000000000
	    0.000000000000     0.000000000000     0.038711675441


Unitcell box[0]:
	   25.832000000000     0.000000000000     0.000000000000
	    0.000000000000    25.832000000000     0.000000000000
	    0.000000000000     0.000000000000    25.832000000000

Unitcell inverse box[0]:
	    0.038711675441    -0.000000000000    -0.000000000000
	    0.000000000000     0.038711675441    -0.000000000000
	    0.000000000000     0.000000000000     0.038711675441

lengths of cell vectors (inverse box):
  0.03871   0.03871   0.03871
cosines of cell angles (inverse box):
 -0.00000  -0.00000  -0.00000
perpendicular cell widths (inverse):
  0.03871   0.03871   0.03871
volume of the cell: 17237.492730368002 (A^3)

No replicas are used
Framework is simulated as 'rigid'
Number of framework atoms: 424
Number of framework atoms in the unit cell: 424
Framework Mass:  6159.841015789802 [g/mol]
Framework Density:   593.395728552254 [kg/m^3]    1.6852160402970 [cm^3/g]
Helium void fraction:    0.00000000
Available pore volume:    0.00000000 [A^3]    0.00000000 [cm^3/g]
Conversion factor from molecule/unit cell -> kmol/m^3: 0.096333, kmol/m^3 accesible pore volume: inf

Number Of Frameworks (per system): 1
----------------------------------------------------------------------
Framework name: IRMOF-1
Citation:
	author name:        'M. Eddaoudi, J. Kim, N. Rosi, D. Vodak, J. Wachter, M. O. Keeffe, and O.M. Yaghi'
	title:              'Systematic design of pore size and functionality in isoreticular MOFs and their application in methane storage'
	journal abbrev.:    'Science'
	journal volume:     295
	first page:         469
	last page:          472
	year:               2002
Space group: 225
	Identifier: 523
	short international Hermann-Mauguin symbol: F m -3 m
	long international Hermann-Mauguin symbol: F 4/m -3 2/m
	Hall symbol: -F 4 2 3
	Number of lattice translations: 4 [ (0,0,0) (0,0.5,0.5) (0.5,0,0.5) (0.5,0.5,0) ]
	acentric/centric: acentric
	chiral: yes
	enantiomorphic: no
	number of operators: 192
		'x,y,z'
		'-x,-y,z'
		'-x,y,-z'
		'x,-y,-z'
		'z,x,y'
		'z,-x,-y'
		'-z,-x,y'
		'-z,x,-y'
		'y,z,x'
		'-y,z,-x'
		'y,-z,-x'
		'-y,-z,x'
		'y,x,-z'
		'-y,-x,-z'
		'y,-x,z'
		'-y,x,z'
		'x,z,-y'
		'-x,z,y'
		'-x,-z,-y'
		'x,-z,y'
		'z,y,-x'
		'z,-y,x'
		'-z,y,x'
		'-z,-y,-x'
		'-x,-y,-z'
		'x,y,-z'
		'x,-y,z'
		'-x,y,z'
		'-z,-x,-y'
		'-z,x,y'
		'z,x,-y'
		'z,-x,y'
		'-y,-z,-x'
		'y,-z,x'
		'-y,z,x'
		'y,z,-x'
		'-y,-x,z'
		'y,x,z'
		'-y,x,-z'
		'y,-x,-z'
		'-x,-z,y'
		'x,-z,-y'
		'x,z,y'
		'-x,z,-y'
		'-z,-y,x'
		'-z,y,-x'
		'z,-y,-x'
		'z,y,x'
		'x,y+1/2,z+1/2'
		'-x,-y+1/2,z+1/2'
		'-x,y+1/2,-z+1/2'
		'x,-y+1/2,-z+1/2'
		'z,x+1/2,y+1/2'
		'z,-x+1/2,-y+1/2'
		'-z,-x+1/2,y+1/2'
		'-z,x+1/2,-y+1/2'
		'y,z+1/2,x+1/2'
		'-y,z+1/2,-x+1/2'
		'y,-z+1/2,-x+1/2'
		'-y,-z+1/2,x+1/2'
		'y,x+1/2,-z+1/2'
		'-y,-x+1/2,-z+1/2'
		'y,-x+1/2,z+1/2'
		'-y,x+1/2,z+1/2'
		'x,z+1/2,-y+1/2'
		'-x,z+1/2,y+1/2'
		'-x,-z+1/2,-y+1/2'
		'x,-z+1/2,y+1/2'
		'z,y+1/2,-x+1/2'
		'z,-y+1/2,x+1/2'
		'-z,y+1/2,x+1/2'
		'-z,-y+1/2,-x+1/2'
		'-x,-y+1/2,-z+1/2'
		'x,y+1/2,-z+1/2'
		'x,-y+1/2,z+1/2'
		'-x,y+1/2,z+1/2'
		'-z,-x+1/2,-y+1/2'
		'-z,x+1/2,y+1/2'
		'z,x+1/2,-y+1/2'
		'z,-x+1/2,y+1/2'
		'-y,-z+1/2,-x+1/2'
		'y,-z+1/2,x+1/2'
		'-y,z+1/2,x+1/2'
		'y,z+1/2,-x+1/2'
		'-y,-x+1/2,z+1/2'
		'y,x+1/2,z+1/2'
		'-y,x+1/2,-z+1/2'
		'y,-x+1/2,-z+1/2'
		'-x,-z+1/2,y+1/2'
		'x,-z+1/2,-y+1/2'
		'x,z+1/2,y+1/2'
		'-x,z+1/2,-y+1/2'
		'-z,-y+1/2,x+1/2'
		'-z,y+1/2,-x+1/2'
		'z,-y+1/2,-x+1/2'
		'z,y+1/2,x+1/2'
		'x+1/2,y,z+1/2'
		'-x+1/2,-y,z+1/2'
		'-x+1/2,y,-z+1/2'
		'x+1/2,-y,-z+1/2'
		'z+1/2,x,y+1/2'
		'z+1/2,-x,-y+1/2'
		'-z+1/2,-x,y+1/2'
		'-z+1/2,x,-y+1/2'
		'y+1/2,z,x+1/2'
		'-y+1/2,z,-x+1/2'
		'y+1/2,-z,-x+1/2'
		'-y+1/2,-z,x+1/2'
		'y+1/2,x,-z+1/2'
		'-y+1/2,-x,-z+1/2'
		'y+1/2,-x,z+1/2'
		'-y+1/2,x,z+1/2'
		'x+1/2,z,-y+1/2'
		'-x+1/2,z,y+1/2'
		'-x+1/2,-z,-y+1/2'
		'x+1/2,-z,y+1/2'
		'z+1/2,y,-x+1/2'
		'z+1/2,-y,x+1/2'
		'-z+1/2,y,x+1/2'
		'-z+1/2,-y,-x+1/2'
		'-x+1/2,-y,-z+1/2'
		'x+1/2,y,-z+1/2'
		'x+1/2,-y,z+1/2'
		'-x+1/2,y,z+1/2'
		'-z+1/2,-x,-y+1/2'
		'-z+1/2,x,y+1/2'
		'z+1/2,x,-y+1/2'
		'z+1/2,-x,y+1/2'
		'-y+1/2,-z,-x+1/2'
		'y+1/2,-z,x+1/2'
		'-y+1/2,z,x+1/2'
		'y+1/2,z,-x+1/2'
		'-y+1/2,-x,z+1/2'
		'y+1/2,x,z+1/2'
		'-y+1/2,x,-z+1/2'
		'y+1/2,-x,-z+1/2'
		'-x+1/2,-z,y+1/2'
		'x+1/2,-z,-y+1/2'
		'x+1/2,z,y+1/2'
		'-x+1/2,z,-y+1/2'
		'-z+1/2,-y,x+1/2'
		'-z+1/2,y,-x+1/2'
		'z+1/2,-y,-x+1/2'
		'z+1/2,y,x+1/2'
		'x+1/2,y+1/2,z'
		'-x+1/2,-y+1/2,z'
		'-x+1/2,y+1/2,-z'
		'x+1/2,-y+1/2,-z'
		'z+1/2,x+1/2,y'
		'z+1/2,-x+1/2,-y'
		'-z+1/2,-x+1/2,y'
		'-z+1/2,x+1/2,-y'
		'y+1/2,z+1/2,x'
		'-y+1/2,z+1/2,-x'
		'y+1/2,-z+1/2,-x'
		'-y+1/2,-z+1/2,x'
		'y+1/2,x+1/2,-z'
		'-y+1/2,-x+1/2,-z'
		'y+1/2,-x+1/2,z'
		'-y+1/2,x+1/2,z'
		'x+1/2,z+1/2,-y'
		'-x+1/2,z+1/2,y'
		'-x+1/2,-z+1/2,-y'
		'x+1/2,-z+1/2,y'
		'z+1/2,y+1/2,-x'
		'z+1/2,-y+1/2,x'
		'-z+1/2,y+1/2,x'
		'-z+1/2,-y+1/2,-x'
		'-x+1/2,-y+1/2,-z'
		'x+1/2,y+1/2,-z'
		'x+1/2,-y+1/2,z'
		'-x+1/2,y+1/2,z'
		'-z+1/2,-x+1/2,-y'
		'-z+1/2,x+1/2,y'
		'z+1/2,x+1/2,-y'
		'z+1/2,-x+1/2,y'
		'-y+1/2,-z+1/2,-x'
		'y+1/2,-z+1/2,x'
		'-y+1/2,z+1/2,x'
		'y+1/2,z+1/2,-x'
		'-y+1/2,-x+1/2,z'
		'y+1/2,x+1/2,z'
		'-y+1/2,x+1/2,-z'
		'y+1/2,-x+1/2,-z'
		'-x+1/2,-z+1/2,y'
		'x+1/2,-z+1/2,-y'
		'x+1/2,z+1/2,y'
		'-x+1/2,z+1/2,-y'
		'-z+1/2,-y+1/2,x'
		'-z+1/2,y+1/2,-x'
		'z+1/2,-y+1/2,-x'
		'z+1/2,y+1/2,x'
Framework is simulated as 'rigid'
Shift: 0.000000 0.000000 0.000000
Number of framework atoms: 424
Number of asymmetric atoms: 7
Number of free framework atoms: 0
Number of fixed framework atoms: 424
Number of framework atoms in the unit cell: 424
Framework Mass:  6159.841015789802 [g/mol]
Framework Density:   593.395728552254 [kg/m^3]
Framework has net charge: 0.000000
         largest charge : 1.211501
         smallest charge: -0.967300

Using FULL Host-guest interaction calculation (for testing purposes)

Current Atom Status
===========================================================================
Number of framework atoms        : 424
Number of cations molecules      : 0
Number of adsorbate molecules    : 0
Pseudo Atoms    0 [    UNIT]:    0 atoms
Pseudo Atoms    1 [      He]:    0 atoms
Pseudo Atoms    2 [   C_co2]:    0 atoms
Pseudo Atoms    3 [   O_co2]:    0 atoms
Pseudo Atoms    4 [    O_o2]:    0 atoms
Pseudo Atoms    5 [   O_com]:    0 atoms
Pseudo Atoms    6 [    N_n2]:    0 atoms
Pseudo Atoms    7 [   N_com]:    0 atoms
Pseudo Atoms    8 [      Ar]:    0 atoms
Pseudo Atoms    9 [     CH4]:    0 atoms
Pseudo Atoms   10 [     CH3]:    0 atoms
Pseudo Atoms   11 [     CH2]:    0 atoms
Pseudo Atoms   12 [      CH]:    0 atoms
Pseudo Atoms   13 [       C]:    0 atoms
Pseudo Atoms   14 [     Zn1]:   32 atoms
Pseudo Atoms   15 [      O1]:    8 atoms
Pseudo Atoms   16 [      O2]:   96 atoms
Pseudo Atoms   17 [      C1]:   48 atoms
Pseudo Atoms   18 [      C2]:   48 atoms
Pseudo Atoms   19 [      C3]:   96 atoms
Pseudo Atoms   20 [      H1]:   96 atoms


Current (initial full energy) Energy Status
===========================================================================

Internal energy:
Host stretch energy:                                            0.00000000
Host UreyBradley energy:                                        0.00000000
Host bend energy:                                               0.00000000
Host inversion-bend energy:                                     0.00000000
Host torsion energy:                                            0.00000000
Host improper torsion energy:                                   0.00000000
Host out-of-plane energy:                                       0.00000000
Host stretch/stretch energy:                                    0.00000000
Host bend/bend energy:                                          0.00000000
Host stretch/bend energy:                                       0.00000000
Host stretch/torsion energy:                                    0.00000000
Host bend/torsion energy:                                       0.00000000

Adsorbate stretch energy:                                       0.00000000
Adsorbate UreyBradley energy:                                   0.00000000
Adsorbate bend energy:                                          0.00000000
Adsorbate inversion-bend energy:                                0.00000000
Adsorbate torsion energy:                                       0.00000000
Adsorbate improper torsion energy:                              0.00000000
Adsorbate out-of-plane energy:                                  0.00000000
Adsorbate stretch/stretch energy:                               0.00000000
Adsorbate bend/bend energy:                                     0.00000000
Adsorbate stretch/bend energy:                                  0.00000000
Adsorbate stretch/torsion energy:                               0.00000000
Adsorbate bend/torsion energy:                                  0.00000000
Adsorbate intra VDW energy:                                     0.00000000
Adsorbate intra charge-charge Coulomb energy:                   0.00000000
Adsorbate intra charge-bonddipole Coulomb energy:               0.00000000
Adsorbate intra bonddipole-bonddipole Coulomb energy:           0.00000000

Cation stretch energy:                                          0.00000000
Cation UreyBradley energy:                                      0.00000000
Cation bend energy:                                             0.00000000
Cation inversion-bend energy:                                   0.00000000
Cation torsion energy:                                          0.00000000
Cation improper torsion energy:                                 0.00000000
Cation out-of-plane energy:                                     0.00000000
Cation stretch/stretch energy:                                  0.00000000
Cation bend/bend energy:                                        0.00000000
Cation stretch/bend energy:                                     0.00000000
Cation stretch/torsion energy:                                  0.00000000
Cation bend/torsion energy:                                     0.00000000
Cation intra VDW energy:                                        0.00000000
Cation intra charge-charge Coulomb energy:                      0.00000000
Cation intra charge-bonddipole Coulomb energy:                  0.00000000
Cation intra bonddipole-bonddipole Coulomb energy:              0.00000000

Host/Host energy:                                             0.00000000
	Host/Host VDW energy:                                         0.00000000
	Host/Host Coulomb energy:                                     0.00000000
	Host/Host charge-charge Real energy:                          0.00000000
	Host/Host charge-charge Fourier energy:                       0.00000000
	Host/Host charge-bonddipole Real energy:                      0.00000000
	Host/Host charge-bonddipole Fourier energy:                   0.00000000
	Host/Host bondipole-bonddipole Real energy:                   0.00000000
	Host/Host bondipole-bonddipole Fourier energy:                0.00000000

Host/Adsorbate energy:                                        0.00000000
	Host/Adsorbate VDW energy:                                    0.00000000
	Host/Adsorbate Coulomb energy:                                0.00000000
	Host/Adsorbate charge-charge Real energy:                     0.00000000
	Host/Adsorbate charge-charge Fourier energy:                  0.00000000
	Host/Adsorbate charge-bonddipole Real energy:                 0.00000000
	Host/Adsorbate charge-bonddipole Fourier energy:              0.00000000
	Host/Adsorbate bondipole-bonddipole Real energy:              0.00000000
	Host/Adsorbate bondipole-bonddipole Fourier energy:           0.00000000

Host/Cation energy:                                           0.00000000
	Host/Cation VDW energy:                                       0.00000000
	Host/Cation Coulomb energy:                                   0.00000000
	Host/Cation charge-charge Real energy:                        0.00000000
	Host/Cation charge-charge Fourier energy:                     0.00000000
	Host/Cation charge-bonddipole Real energy:                    0.00000000
	Host/Cation charge-bonddipole Fourier energy:                 0.00000000
	Host/Cation bondipole-bonddipole Real energy:                 0.00000000
	Host/Cation bondipole-bonddipole Fourier energy:              0.00000000

Adsorbate/Adsorbate energy:                                        0.00000000
	Adsorbate/Adsorbate VDW energy:                                    0.00000000
	Adsorbate/Adsorbate Coulomb energy:                                0.00000000
	Adsorbate/Adsorbate charge-charge Real energy:                     0.00000000
	Adsorbate/Adsorbate charge-charge Fourier energy:                  0.00000000
	Adsorbate/Adsorbate charge-bonddipole Real energy:                 0.00000000
	Adsorbate/Adsorbate charge-bonddipole Fourier energy:              0.00000000
	Adsorbate/Adsorbate bondipole-bonddipole Real energy:              0.00000000
	Adsorbate/Adsorbate bondipole-bonddipole Fourier energy:           0.00000000

Adsorbate/Cation energy:                                           0.00000000
	Adsorbate/Cation VDW energy:                                       0.00000000
	Adsorbate/Cation Coulomb energy:                                   0.00000000
	Adsorbate/Cation charge-charge Real energy:                        0.00000000
	Adsorbate/Cation charge-charge Fourier energy:                     0.00000000
	Adsorbate/Cation charge-bonddipole Real energy:                    0.00000000
	Adsorbate/Cation charge-bonddipole Fourier energy:                 0.00000000
	Adsorbate/Cation bondipole-bonddipole Real energy:                 0.00000000
	Adsorbate/Cation bondipole-bonddipole Fourier energy:              0.00000000

Cation/Cation energy:                                           0.00000000
	Cation/Cation VDW energy:                                       0.00000000
	Cation/Cation Coulomb energy:                                   0.00000000
	Cation/Cation charge-charge Real energy:                        0.00000000
	Cation/Cation charge-charge Fourier energy:                     0.00000000
	Cation/Cation charge-bonddipole Real energy:                    0.00000000
	Cation/Cation charge-bonddipole Fourier energy:                 0.00000000
	Cation/Cation bondipole-bonddipole Real energy:                 0.00000000
	Cation/Cation bondipole-bonddipole Fourier energy:              0.00000000

Polarization energy:
	Host polarization energy:                                     0.00000000
	Adsorbate polarization energy:                                0.00000000
	Cation polarization energy:                                   0.00000000
	Host back-polarization energy:                                     0.00000000
	Adsorbate back-polarization energy:                                0.00000000
	Cation back-polarization energy:                                   0.00000000

Tail-correction energy:                                       0.00000000

Distance constraints energy:                                  0.00000000
Angle constraints energy:                                     0.00000000
Dihedral constraints energy:                                  0.00000000
Inversion-bend constraints energy:                            0.00000000
Out-of-plane distance constraints energy:                     0.00000000
Exclusion constraints energy:                                 0.00000000

===================================================================
Total energy:     0.000000000000
	Total Van der Waals: 0.000000
	Total Coulomb: 0.000000

	Total Polarization: 0.000000







+++++++++++++++++++++++++++++++++++++++++++++++++++++++++++++++++++++++++
Starting simulation
+++++++++++++++++++++++++++++++++++++++++++++++++++++++++++++++++++++++++

+++++++++++++++++++++++++++++++++++++++++++++++++++++++++++++++++++++++++
Finishing simulation
+++++++++++++++++++++++++++++++++++++++++++++++++++++++++++++++++++++++++




Current (running energy) Energy Status
===========================================================================

Internal energy:
Host stretch energy:                                            0.00000000
Host UreyBradley energy:                                        0.00000000
Host bend energy:                                               0.00000000
Host inversion-bend energy:                                     0.00000000
Host torsion energy:                                            0.00000000
Host improper torsion energy:                                   0.00000000
Host out-of-plane energy:                                       0.00000000
Host stretch/stretch energy:                                    0.00000000
Host bend/bend energy:                                          0.00000000
Host stretch/bend energy:                                       0.00000000
Host stretch/torsion energy:                                    0.00000000
Host bend/torsion energy:                                       0.00000000

Adsorbate stretch energy:                                       0.00000000
Adsorbate UreyBradley energy:                                   0.00000000
Adsorbate bend energy:                                          0.00000000
Adsorbate inversion-bend energy:                                0.00000000
Adsorbate torsion energy:                                       0.00000000
Adsorbate improper torsion energy:                              0.00000000
Adsorbate out-of-plane energy:                                  0.00000000
Adsorbate stretch/stretch energy:                               0.00000000
Adsorbate bend/bend energy:                                     0.00000000
Adsorbate stretch/bend energy:                                  0.00000000
Adsorbate stretch/torsion energy:                               0.00000000
Adsorbate bend/torsion energy:                                  0.00000000
Adsorbate intra VDW energy:                                     0.00000000
Adsorbate intra charge-charge Coulomb energy:                   0.00000000
Adsorbate intra charge-bonddipole Coulomb energy:               0.00000000
Adsorbate intra bonddipole-bonddipole Coulomb energy:           0.00000000

Cation stretch energy:                                          0.00000000
Cation UreyBradley energy:                                      0.00000000
Cation bend energy:                                             0.00000000
Cation inversion-bend energy:                                   0.00000000
Cation torsion energy:                                          0.00000000
Cation improper torsion energy:                                 0.00000000
Cation out-of-plane energy:                                     0.00000000
Cation stretch/stretch energy:                                  0.00000000
Cation bend/bend energy:                                        0.00000000
Cation stretch/bend energy:                                     0.00000000
Cation stretch/torsion energy:                                  0.00000000
Cation bend/torsion energy:                                     0.00000000
Cation intra VDW energy:                                        0.00000000
Cation intra charge-charge Coulomb energy:                      0.00000000
Cation intra charge-bonddipole Coulomb energy:                  0.00000000
Cation intra bonddipole-bonddipole Coulomb energy:              0.00000000

Host/Host energy:                                             0.00000000
	Host/Host VDW energy:                                         0.00000000
	Host/Host Coulomb energy:                                     0.00000000
	Host/Host charge-charge Real energy:                          0.00000000
	Host/Host charge-charge Fourier energy:                       0.00000000
	Host/Host charge-bonddipole Real energy:                      0.00000000
	Host/Host charge-bonddipole Fourier energy:                   0.00000000
	Host/Host bondipole-bonddipole Real energy:                   0.00000000
	Host/Host bondipole-bonddipole Fourier energy:                0.00000000

Host/Adsorbate energy:                                        0.00000000
	Host/Adsorbate VDW energy:                                    0.00000000
	Host/Adsorbate Coulomb energy:                                0.00000000
	Host/Adsorbate charge-charge Real energy:                     0.00000000
	Host/Adsorbate charge-charge Fourier energy:                  0.00000000
	Host/Adsorbate charge-bonddipole Real energy:                 0.00000000
	Host/Adsorbate charge-bonddipole Fourier energy:              0.00000000
	Host/Adsorbate bondipole-bonddipole Real energy:              0.00000000
	Host/Adsorbate bondipole-bonddipole Fourier energy:           0.00000000

Host/Cation energy:                                           0.00000000
	Host/Cation VDW energy:                                       0.00000000
	Host/Cation Coulomb energy:                                   0.00000000
	Host/Cation charge-charge Real energy:                        0.00000000
	Host/Cation charge-charge Fourier energy:                     0.00000000
	Host/Cation charge-bonddipole Real energy:                    0.00000000
	Host/Cation charge-bonddipole Fourier energy:                 0.00000000
	Host/Cation bondipole-bonddipole Real energy:                 0.00000000
	Host/Cation bondipole-bonddipole Fourier energy:              0.00000000

Adsorbate/Adsorbate energy:                                        0.00000000
	Adsorbate/Adsorbate VDW energy:                                    0.00000000
	Adsorbate/Adsorbate Coulomb energy:                                0.00000000
	Adsorbate/Adsorbate charge-charge Real energy:                     0.00000000
	Adsorbate/Adsorbate charge-charge Fourier energy:                  0.00000000
	Adsorbate/Adsorbate charge-bonddipole Real energy:                 0.00000000
	Adsorbate/Adsorbate charge-bonddipole Fourier energy:              0.00000000
	Adsorbate/Adsorbate bondipole-bonddipole Real energy:              0.00000000
	Adsorbate/Adsorbate bondipole-bonddipole Fourier energy:           0.00000000

Adsorbate/Cation energy:                                           0.00000000
	Adsorbate/Cation VDW energy:                                       0.00000000
	Adsorbate/Cation Coulomb energy:                                   0.00000000
	Adsorbate/Cation charge-charge Real energy:                        0.00000000
	Adsorbate/Cation charge-charge Fourier energy:                     0.00000000
	Adsorbate/Cation charge-bonddipole Real energy:                    0.00000000
	Adsorbate/Cation charge-bonddipole Fourier energy:                 0.00000000
	Adsorbate/Cation bondipole-bonddipole Real energy:                 0.00000000
	Adsorbate/Cation bondipole-bonddipole Fourier energy:              0.00000000

Cation/Cation energy:                                           0.00000000
	Cation/Cation VDW energy:                                       0.00000000
	Cation/Cation Coulomb energy:                                   0.00000000
	Cation/Cation charge-charge Real energy:                        0.00000000
	Cation/Cation charge-charge Fourier energy:                     0.00000000
	Cation/Cation charge-bonddipole Real energy:                    0.00000000
	Cation/Cation charge-bonddipole Fourier energy:                 0.00000000
	Cation/Cation bondipole-bonddipole Real energy:                 0.00000000
	Cation/Cation bondipole-bonddipole Fourier energy:              0.00000000

Polarization energy:
	Host polarization energy:                                     0.00000000
	Adsorbate polarization energy:                                0.00000000
	Cation polarization energy:                                   0.00000000
	Host back-polarization energy:                                     0.00000000
	Adsorbate back-polarization energy:                                0.00000000
	Cation back-polarization energy:                                   0.00000000

Tail-correction energy:                                       0.00000000

Distance constraints energy:                                  0.00000000
Angle constraints energy:                                     0.00000000
Dihedral constraints energy:                                  0.00000000
Inversion-bend constraints energy:                            0.00000000
Out-of-plane distance constraints energy:                     0.00000000
Exclusion constraints energy:                                 0.00000000

===================================================================
Total energy:     0.000000000000
	Total Van der Waals: 0.000000
	Total Coulomb: 0.000000

	Total Polarization: 0.000000

Monte-Carlo moves statistics
===========================================================================

Performance of the small-MC scheme
==================================



Translation move was OFF for all components

Random translation move was OFF for all components

Rotation move was OFF for all components

Random rotation move was OFF for all components

Swap addition move was OFF for all components

Swap deletion move was OFF for all components

Reinsertion move was OFF for all components

Reinsertion-in-plane move was OFF for all components

Reinsertion-in-place move was OFF for all components

Partial reinsertion move was OFF for all components

Identity change move was OFF for all components

Parallel tempering move was OFF

Hyper parallel tempering move was OFF

Parallel mol-fraction move was OFF

Chiral inversion move was OFF

Volume move was OFF

Box shape change move was OFF

Framework change move was OFF

Framework shift move was OFF

Hybrid MC/MD move in the NVE-ensemble was OFF

Hybrid MC/MD in the NPH-ensemble move was OFF

Hybrid MC/MD in the NPH-ensemble (Parrinello-Rahman) move was OFF

Gibbs volume change move was OFF

Gibbs swap move was OFF for all components

Gibbs identity change move was OFF for all components

CFCMC swap lambda move was OFF for all components

CB/CFCMC swap lambda move was OFF for all components

CFCMC Gibbs lambda move was OFF for all components

CB/CFCMC Gibbs lambda move was OFF for all components

No reactions present, RXMC is OFF

Exchange fractional-particle move was OFF for all components

CFCMC Gibbs Lambda-change move was OFF for all components

CFCMC Gibbs Swap-Fractional-Molecule-To-Other-Box move was OFF for all components

CFCMC Gibbs Swap-Fractional-Molecule-To-Other-Box move was OFF for all components

CFCMC swap lambda move was OFF for all components

Gibbs Widom move was OFF for all components



Total CPU timings:
===========================================
initialization:                     0 [s]
equilibration:                      0 [s]
production run:                     0 [s]
total time:                         0 [s]

Production run CPU timings of the MC moves:
===========================================

Total all components:
	translation:                                         0 [s]
	random translation:                                  0 [s]
	rotation:                                            0 [s]
	random rotation:                                     0 [s]
	partial reinsertion:                                 0 [s]
	reinsertion:                                         0 [s]
	reinsertion in-place:                                0 [s]
	reinsertion in-plane:                                0 [s]
	identity switch:                                     0 [s]
	swap (insertion):                                    0 [s]
	swap (deletion):                                     0 [s]
	swap lambda (CFMC):                                  0 [s]
	swap lambda (CB/CFMC):                               0 [s]
	Widom:                                               0 [s]
	CF-Widom:                                            0 [s]
	Gibbs Widom:                                         0 [s]
	surface area:                                        0 [s]
	Gibbs particle transform:                            0 [s]
	Gibbs particle transform (CFMC):                     0 [s]
	Gibbs particle transform (CB/CFMC):                  0 [s]
	Gibbs identity change:                               0 [s]
	Exchange fract./int. particle:                       0 [s]
	Swap Gibbs-fractional molecules:                     0 [s]
	Change Gibs-lambda value:                            0 [s]
	Convert Gibbs fract. to integer:                     0 [s]

System moves:
	parallel tempering:                             0 [s]
	hyper parallel tempering:                       0 [s]
	mol-fraction replica-exchange:                  0 [s]
	chiral inversion:                               0 [s]
	hybrid MC/MD (NVE):                             0 [s]
	hybrid MC/MD (NPH):                             0 [s]
	hybrid MC/MD (NPHPR):                           0 [s]
	volume change:                                  0 [s]
	box change:                                     0 [s]
	Gibbs volume change:                            0 [s]
	framework change:                               0 [s]
	framework shift:                                0 [s]
	reaction MC move:                               0 [s]

Production run CPU timings of the MC moves summed over all systems and components:
==================================================================================

Particles moves:
	translation:                                         0 [s]
	random translation:                                  0 [s]
	rotation:                                            0 [s]
	random rotation:                                     0 [s]
	partial reinsertion:                                 0 [s]
	reinsertion:                                         0 [s]
	reinsertion in-place:                                0 [s]
	reinsertion in-plane:                                0 [s]
	identity switch:                                     0 [s]
	swap (insertion):                                    0 [s]
	swap (deletion):                                     0 [s]
	swap lambda (CFMC):                                  0 [s]
	swap lambda (CB/CFMC):                               0 [s]
	Widom:                                               0 [s]
	CF-Widom:                                            0 [s]
	Gibbs Widom:                                         0 [s]
	surface area:                                        0 [s]
	Gibbs particle transform:                            0 [s]
	Gibbs particle transform (CFMC):                     0 [s]
	Gibbs particle transform (CB/CFMC):                  0 [s]
	Gibbs indentity change:                              0 [s]
	Exchange frac./int. particle:                        0 [s]
	Swap Gibbs-fractional molecules:                     0 [s]
	Change Gibs-lambda value:                            0 [s]
	Convert Gibbs fract. to integer:                     0 [s]

System moves:
	parallel tempering:                             0 [s]
	hyper parallel tempering:                       0 [s]
	mol-fraction replica-exchange:                  0 [s]
	chiral inversion:                               0 [s]
	hybrid MC/MD (NVE):                             0 [s]
	hybrid MC/MD (NPH):                             0 [s]
	hybrid MC/MD (NPHPR):                           0 [s]
	volume change:                                  0 [s]
	box change:                                     0 [s]
	Gibbs volume change:                            0 [s]
	framework change:                               0 [s]
	framework shift:                                0 [s]
	reaction MC move:                               0 [s]





Current (full final energy) Energy Status
===========================================================================

Internal energy:
Host stretch energy:                                            0.00000000
Host UreyBradley energy:                                        0.00000000
Host bend energy:                                               0.00000000
Host inversion-bend energy:                                     0.00000000
Host torsion energy:                                            0.00000000
Host improper torsion energy:                                   0.00000000
Host out-of-plane energy:                                       0.00000000
Host stretch/stretch energy:                                    0.00000000
Host bend/bend energy:                                          0.00000000
Host stretch/bend energy:                                       0.00000000
Host stretch/torsion energy:                                    0.00000000
Host bend/torsion energy:                                       0.00000000

Adsorbate stretch energy:                                       0.00000000
Adsorbate UreyBradley energy:                                   0.00000000
Adsorbate bend energy:                                          0.00000000
Adsorbate inversion-bend energy:                                0.00000000
Adsorbate torsion energy:                                       0.00000000
Adsorbate improper torsion energy:                              0.00000000
Adsorbate out-of-plane energy:                                  0.00000000
Adsorbate stretch/stretch energy:                               0.00000000
Adsorbate bend/bend energy:                                     0.00000000
Adsorbate stretch/bend energy:                                  0.00000000
Adsorbate stretch/torsion energy:                               0.00000000
Adsorbate bend/torsion energy:                                  0.00000000
Adsorbate intra VDW energy:                                     0.00000000
Adsorbate intra charge-charge Coulomb energy:                   0.00000000
Adsorbate intra charge-bonddipole Coulomb energy:               0.00000000
Adsorbate intra bonddipole-bonddipole Coulomb energy:           0.00000000

Cation stretch energy:                                          0.00000000
Cation UreyBradley energy:                                      0.00000000
Cation bend energy:                                             0.00000000
Cation inversion-bend energy:                                   0.00000000
Cation torsion energy:                                          0.00000000
Cation improper torsion energy:                                 0.00000000
Cation out-of-plane energy:                                     0.00000000
Cation stretch/stretch energy:                                  0.00000000
Cation bend/bend energy:                                        0.00000000
Cation stretch/bend energy:                                     0.00000000
Cation stretch/torsion energy:                                  0.00000000
Cation bend/torsion energy:                                     0.00000000
Cation intra VDW energy:                                        0.00000000
Cation intra charge-charge Coulomb energy:                      0.00000000
Cation intra charge-bonddipole Coulomb energy:                  0.00000000
Cation intra bonddipole-bonddipole Coulomb energy:              0.00000000

Host/Host energy:                                             0.00000000
	Host/Host VDW energy:                                         0.00000000
	Host/Host Coulomb energy:                                     0.00000000
	Host/Host charge-charge Real energy:                          0.00000000
	Host/Host charge-charge Fourier energy:                       0.00000000
	Host/Host charge-bonddipole Real energy:                      0.00000000
	Host/Host charge-bonddipole Fourier energy:                   0.00000000
	Host/Host bondipole-bonddipole Real energy:                   0.00000000
	Host/Host bondipole-bonddipole Fourier energy:                0.00000000

Host/Adsorbate energy:                                        0.00000000
	Host/Adsorbate VDW energy:                                    0.00000000
	Host/Adsorbate Coulomb energy:                                0.00000000
	Host/Adsorbate charge-charge Real energy:                     0.00000000
	Host/Adsorbate charge-charge Fourier energy:                  0.00000000
	Host/Adsorbate charge-bonddipole Real energy:                 0.00000000
	Host/Adsorbate charge-bonddipole Fourier energy:              0.00000000
	Host/Adsorbate bondipole-bonddipole Real energy:              0.00000000
	Host/Adsorbate bondipole-bonddipole Fourier energy:           0.00000000

Host/Cation energy:                                           0.00000000
	Host/Cation VDW energy:                                       0.00000000
	Host/Cation Coulomb energy:                                   0.00000000
	Host/Cation charge-charge Real energy:                        0.00000000
	Host/Cation charge-charge Fourier energy:                     0.00000000
	Host/Cation charge-bonddipole Real energy:                    0.00000000
	Host/Cation charge-bonddipole Fourier energy:                 0.00000000
	Host/Cation bondipole-bonddipole Real energy:                 0.00000000
	Host/Cation bondipole-bonddipole Fourier energy:              0.00000000

[...]
	Average              0.00000 [K] +/-            0.00000 [K]

Average Adsorbate Bond-Bend cross term energy:
=================================================
	Block[ 0]            0.00000 [K]
	Block[ 1]            0.00000 [K]
	Block[ 2]            0.00000 [K]
	Block[ 3]            0.00000 [K]
	Block[ 4]            0.00000 [K]
	------------------------------------------------------------------------------
	Average              0.00000 [K] +/-            0.00000 [K]

Average Adsorbate Bond-Torsion cross term energy:
=================================================
	Block[ 0]            0.00000 [K]
	Block[ 1]            0.00000 [K]
	Block[ 2]            0.00000 [K]
	Block[ 3]            0.00000 [K]
	Block[ 4]            0.00000 [K]
	------------------------------------------------------------------------------
	Average              0.00000 [K] +/-            0.00000 [K]

Average Adsorbate Bend-Torsion cross term energy:
=================================================
	Block[ 0]            0.00000 [K]
	Block[ 1]            0.00000 [K]
	Block[ 2]            0.00000 [K]
	Block[ 3]            0.00000 [K]
	Block[ 4]            0.00000 [K]
	------------------------------------------------------------------------------
	Average              0.00000 [K] +/-            0.00000 [K]

Average Adsorbate Intra Van der Waals energy:
=============================================
	Block[ 0]            0.00000 [K]
	Block[ 1]            0.00000 [K]
	Block[ 2]            0.00000 [K]
	Block[ 3]            0.00000 [K]
	Block[ 4]            0.00000 [K]
	------------------------------------------------------------------------------
	Average              0.00000 [K] +/-            0.00000 [K]

Average Adsorbate Intra charge-charge Coulomb energy:
=======================================
	Block[ 0]            0.00000 [K]
	Block[ 1]            0.00000 [K]
	Block[ 2]            0.00000 [K]
	Block[ 3]            0.00000 [K]
	Block[ 4]            0.00000 [K]
	------------------------------------------------------------------------------
	Average              0.00000 [K] +/-            0.00000 [K]

Average Adsorbate Intra charge-bonddipole Coulomb energy:
=======================================
	Block[ 0]            0.00000 [K]
	Block[ 1]            0.00000 [K]
	Block[ 2]            0.00000 [K]
	Block[ 3]            0.00000 [K]
	Block[ 4]            0.00000 [K]
	------------------------------------------------------------------------------
	Average              0.00000 [K] +/-            0.00000 [K]

Average Adsorbate Intra bonddipole-bonddipole Coulomb energy:
=======================================
	Block[ 0]            0.00000 [K]
	Block[ 1]            0.00000 [K]
	Block[ 2]            0.00000 [K]
	Block[ 3]            0.00000 [K]
	Block[ 4]            0.00000 [K]
	------------------------------------------------------------------------------
	Average              0.00000 [K] +/-            0.00000 [K]

Average Cation Bond stretch energy:
=================================
	Block[ 0]            0.00000 [K]
	Block[ 1]            0.00000 [K]
	Block[ 2]            0.00000 [K]
	Block[ 3]            0.00000 [K]
	Block[ 4]            0.00000 [K]
	------------------------------------------------------------------------------
	Average              0.00000 [K] +/-            0.00000 [K]

Average Cation UreyBradley stretch energy:
==========================================
	Block[ 0]            0.00000 [K]
	Block[ 1]            0.00000 [K]
	Block[ 2]            0.00000 [K]
	Block[ 3]            0.00000 [K]
	Block[ 4]            0.00000 [K]
	------------------------------------------------------------------------------
	Average              0.00000 [K] +/-            0.00000 [K]

Average Cation Bend angle energy:
=================================
	Block[ 0]            0.00000 [K]
	Block[ 1]            0.00000 [K]
	Block[ 2]            0.00000 [K]
	Block[ 3]            0.00000 [K]
	Block[ 4]            0.00000 [K]
	------------------------------------------------------------------------------
	Average              0.00000 [K] +/-            0.00000 [K]

Average Cation Bend angle inversion energy:
===========================================
	Block[ 0]            0.00000 [K]
	Block[ 1]            0.00000 [K]
	Block[ 2]            0.00000 [K]
	Block[ 3]            0.00000 [K]
	Block[ 4]            0.00000 [K]
	------------------------------------------------------------------------------
	Average              0.00000 [K] +/-            0.00000 [K]

Average Cation Torsion energy:
==============================
	Block[ 0]            0.00000 [K]
	Block[ 1]            0.00000 [K]
	Block[ 2]            0.00000 [K]
	Block[ 3]            0.00000 [K]
	Block[ 4]            0.00000 [K]
	------------------------------------------------------------------------------
	Average              0.00000 [K] +/-            0.00000 [K]

Average Cation Improper Torsion energy:
=======================================
	Block[ 0]            0.00000 [K]
	Block[ 1]            0.00000 [K]
	Block[ 2]            0.00000 [K]
	Block[ 3]            0.00000 [K]
	Block[ 4]            0.00000 [K]
	------------------------------------------------------------------------------
	Average              0.00000 [K] +/-            0.00000 [K]

Average Cation Bond-Bond cross term energy:
=================================================
	Block[ 0]            0.00000 [K]
	Block[ 1]            0.00000 [K]
	Block[ 2]            0.00000 [K]
	Block[ 3]            0.00000 [K]
	Block[ 4]            0.00000 [K]
	------------------------------------------------------------------------------
	Average              0.00000 [K] +/-            0.00000 [K]

Average Cation Bend-Bend cross term energy:
===========================================
	Block[ 0]            0.00000 [K]
	Block[ 1]            0.00000 [K]
	Block[ 2]            0.00000 [K]
	Block[ 3]            0.00000 [K]
	Block[ 4]            0.00000 [K]
	------------------------------------------------------------------------------
	Average              0.00000 [K] +/-            0.00000 [K]

Average Cation Bond-Bend cross term energy:
==============================================
	Block[ 0]            0.00000 [K]
	Block[ 1]            0.00000 [K]
	Block[ 2]            0.00000 [K]
	Block[ 3]            0.00000 [K]
	Block[ 4]            0.00000 [K]
	------------------------------------------------------------------------------
	Average              0.00000 [K] +/-            0.00000 [K]

Average Cation Bond-Torsion cross term energy:
==============================================
	Block[ 0]            0.00000 [K]
	Block[ 1]            0.00000 [K]
	Block[ 2]            0.00000 [K]
	Block[ 3]            0.00000 [K]
	Block[ 4]            0.00000 [K]
	------------------------------------------------------------------------------
	Average              0.00000 [K] +/-            0.00000 [K]

Average Cation Bend-Torsion cross term energy:
==============================================
	Block[ 0]            0.00000 [K]
	Block[ 1]            0.00000 [K]
	Block[ 2]            0.00000 [K]
	Block[ 3]            0.00000 [K]
	Block[ 4]            0.00000 [K]
	------------------------------------------------------------------------------
	Average              0.00000 [K] +/-            0.00000 [K]

Average Cation Intra Van der Waals energy:
==========================================
	Block[ 0]            0.00000 [K]
	Block[ 1]            0.00000 [K]
	Block[ 2]            0.00000 [K]
	Block[ 3]            0.00000 [K]
	Block[ 4]            0.00000 [K]
	------------------------------------------------------------------------------
	Average              0.00000 [K] +/-            0.00000 [K]

Average Cation Intra charge-charge Coulomb energy:
====================================
	Block[ 0]            0.00000 [K]
	Block[ 1]            0.00000 [K]
	Block[ 2]            0.00000 [K]
	Block[ 3]            0.00000 [K]
	Block[ 4]            0.00000 [K]
	------------------------------------------------------------------------------
	Average              0.00000 [K] +/-            0.00000 [K]

Average Cation Intra charge-bonddipole Coulomb energy:
====================================
	Block[ 0]            0.00000 [K]
	Block[ 1]            0.00000 [K]
	Block[ 2]            0.00000 [K]
	Block[ 3]            0.00000 [K]
	Block[ 4]            0.00000 [K]
	------------------------------------------------------------------------------
	Average              0.00000 [K] +/-            0.00000 [K]

Average Cation Intra bonddipole-bonddipole Coulomb energy:
====================================
	Block[ 0]            0.00000 [K]
	Block[ 1]            0.00000 [K]
	Block[ 2]            0.00000 [K]
	Block[ 3]            0.00000 [K]
	Block[ 4]            0.00000 [K]
	------------------------------------------------------------------------------
	Average              0.00000 [K] +/-            0.00000 [K]

Average Host-Host energy:
=========================
	Block[ 0] 0.00000            Van der Waals: 0.00000            Coulomb: 0.00000            [K]
	Block[ 1] 0.00000            Van der Waals: 0.00000            Coulomb: 0.00000            [K]
	Block[ 2] 0.00000            Van der Waals: 0.00000            Coulomb: 0.00000            [K]
	Block[ 3] 0.00000            Van der Waals: 0.00000            Coulomb: 0.00000            [K]
	Block[ 4] 0.00000            Van der Waals: 0.00000            Coulomb: 0.00000            [K]
	------------------------------------------------------------------------------
	Average   0.00000            Van der Waals: 0.000000           Coulomb: 0.00000            [K]
	      +/- 0.00000                       +/- 0.000000                +/- 0.00000            [K]

Average Adsorbate-Adsorbate energy:
===================================
	Block[ 0] 0.00000            Van der Waals: 0.00000            Coulomb: 0.00000            [K]
	Block[ 1] 0.00000            Van der Waals: 0.00000            Coulomb: 0.00000            [K]
	Block[ 2] 0.00000            Van der Waals: 0.00000            Coulomb: 0.00000            [K]
	Block[ 3] 0.00000            Van der Waals: 0.00000            Coulomb: 0.00000            [K]
	Block[ 4] 0.00000            Van der Waals: 0.00000            Coulomb: 0.00000            [K]
	------------------------------------------------------------------------------
	Average   0.00000            Van der Waals: 0.000000           Coulomb: 0.00000            [K]
	      +/- 0.00000                       +/- 0.000000                +/- 0.00000            [K]

Average Cation-Cation energy:
=============================
	Block[ 0] 0.00000            Van der Waals: 0.00000            Coulomb: 0.00000            [K]
	Block[ 1] 0.00000            Van der Waals: 0.00000            Coulomb: 0.00000            [K]
	Block[ 2] 0.00000            Van der Waals: 0.00000            Coulomb: 0.00000            [K]
	Block[ 3] 0.00000            Van der Waals: 0.00000            Coulomb: 0.00000            [K]
	Block[ 4] 0.00000            Van der Waals: 0.00000            Coulomb: 0.00000            [K]
	------------------------------------------------------------------------------
	Average   0.00000            Van der Waals: 0.000000           Coulomb: 0.00000            [K]
	      +/- 0.00000                       +/- 0.000000                +/- 0.00000            [K]

Average Host-Adsorbate energy:
==============================
	Block[ 0] 0.00000            Van der Waals: 0.00000            Coulomb: 0.00000            [K]
	Block[ 1] 0.00000            Van der Waals: 0.00000            Coulomb: 0.00000            [K]
	Block[ 2] 0.00000            Van der Waals: 0.00000            Coulomb: 0.00000            [K]
	Block[ 3] 0.00000            Van der Waals: 0.00000            Coulomb: 0.00000            [K]
	Block[ 4] 0.00000            Van der Waals: 0.00000            Coulomb: 0.00000            [K]
	------------------------------------------------------------------------------
	Average   0.00000            Van der Waals: 0.000000           Coulomb: 0.00000            [K]
	      +/- 0.00000                       +/- 0.000000                +/- 0.00000            [K]

Average Host-Cation energy:
===========================
	Block[ 0] 0.00000            Van der Waals: 0.00000            Coulomb: 0.00000            [K]
	Block[ 1] 0.00000            Van der Waals: 0.00000            Coulomb: 0.00000            [K]
	Block[ 2] 0.00000            Van der Waals: 0.00000            Coulomb: 0.00000            [K]
	Block[ 3] 0.00000            Van der Waals: 0.00000            Coulomb: 0.00000            [K]
	Block[ 4] 0.00000            Van der Waals: 0.00000            Coulomb: 0.00000            [K]
	------------------------------------------------------------------------------
	Average   0.00000            Van der Waals: 0.000000           Coulomb: 0.00000            [K]
	      +/- 0.00000                       +/- 0.000000                +/- 0.00000            [K]

Average Adsorbate-Cation energy:
================================
	Block[ 0] 0.00000            Van der Waals: 0.00000            Coulomb: 0.00000            [K]
	Block[ 1] 0.00000            Van der Waals: 0.00000            Coulomb: 0.00000            [K]
	Block[ 2] 0.00000            Van der Waals: 0.00000            Coulomb: 0.00000            [K]
	Block[ 3] 0.00000            Van der Waals: 0.00000            Coulomb: 0.00000            [K]
	Block[ 4] 0.00000            Van der Waals: 0.00000            Coulomb: 0.00000            [K]
	------------------------------------------------------------------------------
	Average   0.00000            Van der Waals: 0.000000           Coulomb: 0.00000            [K]
	      +/- 0.00000                       +/- 0.000000                +/- 0.00000            [K]

Host polarization energy:
=======================
	Block[ 0]            0.00000 [K]
	Block[ 1]            0.00000 [K]
	Block[ 2]            0.00000 [K]
	Block[ 3]            0.00000 [K]
	Block[ 4]            0.00000 [K]
	------------------------------------------------------------------------------
	Average              0.00000 [K] +/-            0.00000 [K]

Adsorbate polarization energy:
=======================
	Block[ 0]            0.00000 [K]
	Block[ 1]            0.00000 [K]
	Block[ 2]            0.00000 [K]
	Block[ 3]            0.00000 [K]
	Block[ 4]            0.00000 [K]
	------------------------------------------------------------------------------
	Average              0.00000 [K] +/-            0.00000 [K]

Cation polarization energy:
=======================
	Block[ 0]            0.00000 [K]
	Block[ 1]            0.00000 [K]
	Block[ 2]            0.00000 [K]
	Block[ 3]            0.00000 [K]
	Block[ 4]            0.00000 [K]
	------------------------------------------------------------------------------
	Average              0.00000 [K] +/-            0.00000 [K]

Host back-polarization energy:
=======================
	Block[ 0]            0.00000 [K]
	Block[ 1]            0.00000 [K]
	Block[ 2]            0.00000 [K]
	Block[ 3]            0.00000 [K]
	Block[ 4]            0.00000 [K]
	------------------------------------------------------------------------------
	Average              0.00000 [K] +/-            0.00000 [K]

Adsorbate back-polarization energy:
=======================
	Block[ 0]            0.00000 [K]
	Block[ 1]            0.00000 [K]
	Block[ 2]            0.00000 [K]
	Block[ 3]            0.00000 [K]
	Block[ 4]            0.00000 [K]
	------------------------------------------------------------------------------
	Average              0.00000 [K] +/-            0.00000 [K]

Cation back-polarization energy:
=======================
	Block[ 0]            0.00000 [K]
	Block[ 1]            0.00000 [K]
	Block[ 2]            0.00000 [K]
	Block[ 3]            0.00000 [K]
	Block[ 4]            0.00000 [K]
	------------------------------------------------------------------------------
	Average              0.00000 [K] +/-            0.00000 [K]

Tail-correction energy:
=======================
	Block[ 0]            0.00000 [K]
	Block[ 1]            0.00000 [K]
	Block[ 2]            0.00000 [K]
	Block[ 3]            0.00000 [K]
	Block[ 4]            0.00000 [K]
	------------------------------------------------------------------------------
	Average              0.00000 [K] +/-            0.00000 [K]

Distance-constraints energy:
=======================
	Block[ 0]            0.00000 [K]
	Block[ 1]            0.00000 [K]
	Block[ 2]            0.00000 [K]
	Block[ 3]            0.00000 [K]
	Block[ 4]            0.00000 [K]
	------------------------------------------------------------------------------
	Average              0.00000 [K] +/-            0.00000 [K]

Angle-constraints energy:
=======================
	Block[ 0]            0.00000 [K]
	Block[ 1]            0.00000 [K]
	Block[ 2]            0.00000 [K]
	Block[ 3]            0.00000 [K]
	Block[ 4]            0.00000 [K]
	------------------------------------------------------------------------------
	Average              0.00000 [K] +/-            0.00000 [K]

Dihedral-constraints energy:
=======================
	Block[ 0]            0.00000 [K]
	Block[ 1]            0.00000 [K]
	Block[ 2]            0.00000 [K]
	Block[ 3]            0.00000 [K]
	Block[ 4]            0.00000 [K]
	------------------------------------------------------------------------------
	Average              0.00000 [K] +/-            0.00000 [K]

Inversion-bend constraints energy:
=======================
	Block[ 0]            0.00000 [K]
	Block[ 1]            0.00000 [K]
	Block[ 2]            0.00000 [K]
	Block[ 3]            0.00000 [K]
	Block[ 4]            0.00000 [K]
	------------------------------------------------------------------------------
	Average              0.00000 [K] +/-            0.00000 [K]

Out-of-plane-distance constraints energy:
=======================
	Block[ 0]            0.00000 [K]
	Block[ 1]            0.00000 [K]
	Block[ 2]            0.00000 [K]
	Block[ 3]            0.00000 [K]
	Block[ 4]            0.00000 [K]
	------------------------------------------------------------------------------
	Average              0.00000 [K] +/-            0.00000 [K]

Exclusion-constraints energy:
=======================
	Block[ 0]            0.00000 [K]
	Block[ 1]            0.00000 [K]
	Block[ 2]            0.00000 [K]
	Block[ 3]            0.00000 [K]
	Block[ 4]            0.00000 [K]
	------------------------------------------------------------------------------
	Average              0.00000 [K] +/-            0.00000 [K]

Total energy:
=============
	Block[ 0]            0.00000 [K]
	Block[ 1]            0.00000 [K]
	Block[ 2]            0.00000 [K]
	Block[ 3]            0.00000 [K]
	Block[ 4]            0.00000 [K]
	------------------------------------------------------------------------------
	Average              0.00000 [K] +/-            0.00000 [K]

Number of molecules:
====================


Average Widom Rosenbluth factor:
================================

Average Widom chemical potential:
=================================

Average Widom Ideal-gas contribution:
=====================================

Average Widom excess contribution:
==================================

Average Gibbs Widom Rosenbluth factor:
======================================

Average Gibbs Widom chemical potential:
=======================================

Average Gibbs Widom Ideal-gas contribution:
===========================================

Average Gibbs Widom excess contribution:
===========================================

Average Henry coefficient:
==========================

Average adsorption energy <U_gh>_1-<U_h>_0 obtained from Widom-insertion:
(Note: the total heat of adsorption is dH=<U_gh>_1-<U_h>_0 - <U_g> - RT)
=========================================================================

Simulation finished,  0 warnings


Thu May 20 10:20:08 2021
Simulation finished on Thursday, May 20.
The end time was 10:20 AM.

