Compiler and run-time data
===========================================================================
RASPA 1.8-0
Compiled as a 64-bits application
Compiler: gcc 4.2.1 (Based on Apple Inc. build 5658) (LLVM build 2336.11.00)
Compile Date = Apr 18 2013, Compile Time = 10:46:58

Thu Apr 18 12:14:17 2013
Simulation started on Thursday, April 18.
The start time was 12:14 PM.

Cpu data:    x86_64
Cpu Model:   MacPro5,1
Host name:   server.darkwing.nl
OS release:  12.3.0
OS type:     Darwin
OS version:  12D78


Simulation
===========================================================================
Dimensions: 3
Random number seed: 1366280056
RASPA directory set to: /Users/dubbelda/RASPA/simulations/
String appended to output-files: 
Number of cycles: 1
Number of initializing cycles: 0
Number of equilibration cycles: 0
Print every: 1
Triclinic boundary condition applied
Timestep: 0.000500
Initialization Ensemble: NVT (constant number of particles N, constant volume V, constant average temperature T)
Production run ensemble: NVT (constant number of particles N, constant volume V, constant average temperature T)
	Degrees of freedom:                        432
	Translational Degrees of freedom:          432
	Rotational Degrees of freedom:             0
	Degrees of freedom Framework:              432


Mutual consistent basic set of units:
======================================
Unit of temperature: Kelvin
Unit of length:      1e-10 [m]
Unit of time:        1e-12 [s]
Unit of mass:        1.66054e-27 [kg]
Unit of charge:      1.60218e-19 [C/particle]

Derived units and their conversion factors:
===========================================
Unit of energy:              1.66054e-23 [J]
Unit of force:               1.66054e-13 [N]
Unit of pressure:            1.66054e+07 [Pa]
Unit of velocity:            100 [m/s]
Unit of acceleration:        1e-08 [m^2/s]
Unit of diffusion:           1e-08 [m^2/s]
Unit of dipole moment:       1.60218e-29 [C.m]
Unit of electric potential:  0.000103643 [V]
Unit of electric field:      1.03643e+06 [V]
Unit of polarizability:      1.54587e-35 [-]
Unit of Coulomb potential:   167101.0800066561  [K]
Unit of dielectric constant: 0.0000154587       [s^2 C^2/(kg m^3)]
Unit of wave vectors:        5.3088374589       [cm^1]
Boltzmann constant:          0.8314464919       [-]

Internal conversion factors:
===========================================
Energy to Kelvin:                                    1.2027242847
FH correction factor                                 2.0211930949
Heat capacity conversion factor:                    10.0000088723
From Debye to internal units:                        4.8032067991
Isothermal compressibility conversion factor:        0.0000000602

Energy conversion factors:
===========================================
From mdyne/A to kcal/mol/A^2:           143.933
From mdyne/A to kj/mol/A^2:             602.214
From mdyne/A to K/A^2:                  72429.7
From mdyne A/rad^2 to kcal/mol/deg^2:   0.0438444


Properties computed
===========================================================================
Movies: yes
	Movie snapshots are appended to file every 1 cycles
Radial Distribution Function: no
Number of molecules GCMC histogram: no
Histogram of the molecule positions: no
Free energy profiles: no
Pore Size Distribution Function: no
End-to-end distance: no
Histogram of the energy of the system: no
Compute thermodynamic factors: no
Framework spacing histograms: no
Residence times histograms: no
Distance histograms: no
Bend Angle histograms: no
Dihedral angle histograms: no
Angle between planes histograms: no
Molecule properties: no
Infra-red spectra: no
Mean-squared displacement using modified order-N algorithm: no
Velocity-autocorrelation function modified order-N algorithm: no
Rotational velocity-autocorrelation function modified order-N algorithm: no
Molecular orientation-autocorrelation function modified order-N algorithm: no
Mean-squared displacement (conventional algorithm): no
Velocity-autocorrelation function (conventional algorithm): no
3D density grid for adsorbates: no
Compute cation an/or adsorption sites: no
dcTST snapshots: no
Compute pressure and stress: no


VTK
===========================================================================
VTK fractional-range position framework atoms: [-0.001000,1.001000] [-0.001000,1.001000] [-0.001000,1.001000]
VTK fractional-range position framework bonds: [-0.151000,1.151000] [-0.151000,1.151000] [-0.151000,1.151000]
VTK fractional-range com-position adsorbate molecules: [-0.101000,1.101000] [-0.101000,1.101000] [-0.101000,1.101000]
VTK fractional-range com-position cation molecules: [-0.101000,1.101000] [-0.101000,1.101000] [-0.101000,1.101000]
	3D free energy grid made for the full simulation-cell


Thermo/Baro-stat NHC parameters
===========================================================================
External temperature: 300.000000 [K]
Beta: 0.004009 [energy unit]
External Pressure: 0.000000 [Pa]


Thermostat chain-length: 3
Timescale parameter for thermostat: 0.150000 [ps]
Barostat chain-length:   3
Timescale parameter for barostat:   0.150000 [ps]

Number of Yoshida-Suzuki decomposition steps: 5
Number of respa steps: 5


Method and settings for electrostatics
===============================================================================
Dielectric constant of the medium : 1.000000
Charge from charge-equilibration: no
Ewald summation is used (exact solution of a periodic system)
Relative precision                : 1e-08
Alpha convergence parameter       : 0.317887
kvec (x,y,z)                      : 6 6 6


CFC-RXMC parameters
===========================================================================
Number of reactions: 0


Rattle parameters
===========================================================================
Distance constraint type: r^2-r^2_0
Bend angle constraint type: theta-theta_0
Dihedral angle constraint type: phi-phi_0
Inversion-bend angle constraint type: chi-chi_0
Out-of-plane distance constraint type: r-r_0


Spectra parameters
===========================================================================
Compute normal modes: no


Minimization parameters
===========================================================================
Generalized coordinates are: Cartesian center-of-mass, elements of the orientational matrix p1,p2,p3 and strain
Potential derivatives are evaluated: analytically
Translation of the system is removed from the generalized Hessian: no
Rotation of the system is removed from the generalized Hessian: no
Maximum step-length: 0.3
Convergence factor: 1
Maximum number of minimization steps: 10000
Use gradients in the line-minimizations: yes
RMS gradient tolerance: 1e-06
Maximum gradient tolerance: 1e-06

Distance constraints: 0
Angle constraints: 0
Dihedral constraints: 0

Improper dihedral constraints: 0

Inversion-bend constraints: 0

Out-of-plane constraints: 0

Harmonic distance constraints: 0
Harmonic angle constraints: 0
Harmonic dihedral constraints: 0

Dihedral mid-point measurements: 0

Number of fixed framework atoms: 0  (active: 240)
fixed atom-list: 
Number of active framework atoms: 240  (fixed: 0)
active atom-list: 

Fixed adsorbate atoms:  
Fixed adsorbate groups (center-of-mass):  
Fixed adsorbate groups (orientation):  

Fixed cation atoms:  
Fixed cation groups (center-of-mass):  
Fixed cation groups (orientation):  


dcTST parameters
===========================================================================
Free energy profiles computed: no
Free energy profiles written every 5000 cycles
Free energy mapping: mapped to a,b,c-coordinates
BarrierPosition:       0.0000000000       0.0000000000       0.0000000000
BarrierNormal:         0.0000000000       0.0000000000       0.0000000000
Start with a molecule on top of the barrier: no
Maximum distance to barrier (e.g. distance to minumum free energy):       0.0000000000 [A]
Maximum trajectory time:      10.0000000000 [ps]
Each configuration is used with 5 different initial velocities


Cbmc parameters
===========================================================================
Biasing method: using only the VDW part
Number of trial positions:                             10
Number of trial positions coupled Torsion-selection:   100
Number of trial position for the first bead:           10
Number of trial moves per open bead:                   150
Target acceptance ratio small-mc scheme:               0.400000
Energy overlap criteria:                               100000
Minimal Rosenbluth factor:                             1e-150


Pseudo atoms: 9
===========================================================================
Pseudo Atom[   0] Name UNIT     Oxidation: +0       Element: -    pdb-name: H    Scat. Types:   0   1 Mass=1.000000000  B-factor:1.000   
                 Charge=1.000000000          Polarization=0.000000000  [A^3] (considered a charged atom and no polarization)  Interactions:  no
                 Anisotropic factor:    0.000 [-] (Relative), Radius:    1.000 [A], Framework-atom:  no
Pseudo Atom[   1] Name O        Oxidation: +0       Element: O    pdb-name: O    Scat. Types:   9   8 Mass=15.799400000 B-factor:1.000   
                 Charge=0.869020000          Polarization=0.000000000  [A^3] (considered a charged atom and no polarization)  Interactions:  no
                 Anisotropic factor:    0.000 [-] (Relative), Radius:    0.680 [A], Framework-atom: yes (charge from pseudo-atoms file)
Pseudo Atom[   2] Name Oa       Oxidation: +0       Element: O    pdb-name: O    Scat. Types:   9   8 Mass=15.799400000 B-factor:1.000   
                 Charge=0.869020000          Polarization=0.000000000  [A^3] (considered a charged atom and no polarization)  Interactions:  no
                 Anisotropic factor:    0.000 [-] (Relative), Radius:    0.680 [A], Framework-atom:  no
Pseudo Atom[   3] Name shO      Oxidation: +0       Element: O    pdb-name: O    Scat. Types:   9   8 Mass=0.200000000  B-factor:1.000   
                 Charge=-2.869020000         Polarization=0.000000000  [A^3] (considered a charged atom and no polarization)  Interactions: yes
                 Anisotropic factor:    0.000 [-] (Relative), Radius:    0.000 [A], Framework-atom:  no
Pseudo Atom[   4] Name shOa     Oxidation: +0       Element: O    pdb-name: O    Scat. Types:   9   8 Mass=0.200000000  B-factor:1.000   
                 Charge=-2.869020000         Polarization=0.000000000  [A^3] (considered a charged atom and no polarization)  Interactions: yes
                 Anisotropic factor:    0.000 [-] (Relative), Radius:    0.000 [A], Framework-atom:  no
Pseudo Atom[   5] Name Mg       Oxidation: +0       Element: Mg   pdb-name: Mg   Scat. Types:  13  12 Mass=24.305000000 B-factor:1.000   
                 Charge=2.000000000          Polarization=0.000000000  [A^3] (considered a charged atom and no polarization)  Interactions: yes
                 Anisotropic factor:    0.000 [-] (Relative), Radius:    1.180 [A], Framework-atom:  no
Pseudo Atom[   6] Name P        Oxidation: +0       Element: p    pdb-name: P    Scat. Types:  16  15 Mass=30.973762000 B-factor:1.000   
                 Charge=5.000000000          Polarization=0.000000000  [A^3] (considered a charged atom and no polarization)  Interactions: yes
                 Anisotropic factor:    0.000 [-] (Relative), Radius:    1.180 [A], Framework-atom:  no
Pseudo Atom[   7] Name Si       Oxidation: +0       Element: Si   pdb-name: Si   Scat. Types:  15  14 Mass=28.085500000 B-factor:1.000   
                 Charge=4.000000000          Polarization=0.000000000  [A^3] (considered a charged atom and no polarization)  Interactions: yes
                 Anisotropic factor:    0.000 [-] (Relative), Radius:    1.180 [A], Framework-atom: yes (charge from pseudo-atoms file)
Pseudo Atom[   8] Name Al       Oxidation: +0       Element: Al   pdb-name: Al   Scat. Types:  14  13 Mass=26.981538600 B-factor:1.000   
                 Charge=3.000000000          Polarization=0.000000000  [A^3] (considered a charged atom and no polarization)  Interactions: yes
                 Anisotropic factor:    0.000 [-] (Relative), Radius:    1.180 [A], Framework-atom:  no


Forcefield: local
===========================================================================
CutOff VDW : 12.000000 (144.000000)
CutOff VDW switching on: 10.800000 (116.640000)
CutOff charge-charge : 12.000000 (144.000000)
CutOff charge-charge switching on: 7.800000 (60.840000)
CutOff charge-bonddipole : 12.000000 (144.000000)
CutOff charge-bondipole switching on: 8.400000 (70.560000)
CutOff bonddipole-bonddipole : 12.000000 (144.000000)
CutOff bonddipole-bondipole switching on: 9.000000 (81.000000)
Polarization is neglected
All potentials are shifted to zero at the Cutoff

No general mixing rule: all cross term specified individualy
0 cross terms are overwritten using the individual mixing rules from the file 'force_field_mixing_rules.def'
and then 11 terms are overwritten using the specific interactions from the file 'force_field.def'

The force field and all the interactions:
    shO -     shO [BUCKINGHAM] p_0/k_B: 264165308.49759 [K], p_1:  6.71141 [A^-1], p_2/k_B: 323514.32817 [K A^6], shift/k_B: -0.10834 [K]
    shO -    shOa [BUCKINGHAM] p_0/k_B: 264165308.49759 [K], p_1:  6.71141 [A^-1], p_2/k_B: 323522.43171 [K A^6], shift/k_B: -0.10835 [K]
    shO -      Mg [BUCKINGHAM] p_0/k_B: 10984877.43221 [K], p_1:  3.14337 [A^-1], p_2/k_B:  0.00000 [K A^6], shift/k_B:  0.00000 [K]
    shO -       P [BUCKINGHAM] p_0/k_B: 10180855.14820 [K], p_1:  2.78242 [A^-1], p_2/k_B:  0.00000 [K A^6], shift/k_B:  0.00000 [K]
    shO -      Si [BUCKINGHAM] p_0/k_B: 14899125.31792 [K], p_1:  3.11993 [A^-1], p_2/k_B: 123722.52547 [K A^6], shift/k_B: -0.04143 [K]
    shO -      Al [BUCKINGHAM] p_0/k_B: 16945657.06900 [K], p_1:  3.34314 [A^-1], p_2/k_B:  0.00000 [K A^6], shift/k_B:  0.00000 [K]
   shOa -    shOa [BUCKINGHAM] p_0/k_B: 264165308.49759 [K], p_1:  6.71141 [A^-1], p_2/k_B: 323514.32817 [K A^6], shift/k_B: -0.10834 [K]
   shOa -      Mg [BUCKINGHAM] p_0/k_B: 10984877.43221 [K], p_1:  3.14337 [A^-1], p_2/k_B:  0.00000 [K A^6], shift/k_B:  0.00000 [K]
   shOa -       P [BUCKINGHAM] p_0/k_B: 10180855.14820 [K], p_1:  2.78242 [A^-1], p_2/k_B:  0.00000 [K A^6], shift/k_B:  0.00000 [K]
   shOa -      Si [BUCKINGHAM] p_0/k_B: 14899125.31792 [K], p_1:  3.11993 [A^-1], p_2/k_B: 123722.52547 [K A^6], shift/k_B: -0.04143 [K]
   shOa -      Al [BUCKINGHAM] p_0/k_B: 16945657.06900 [K], p_1:  3.34314 [A^-1], p_2/k_B:  0.00000 [K A^6], shift/k_B:  0.00000 [K]


MoleculeDefinitions:
===========================================================================
No components defined in 'simulation.input'


Framework Status
===========================================================================
Lowenstein's rule obeyed by framework
	Framework is modelled as: flexible using the model of local
	==================================================================================

	Number of Core/Shell definitions: 2
	--------------------------------------------
	Core/shell pair: core [O] and shell [shO] (96 pairs)
	Core/shell pair: core [Oa] and shell [shOa] (0 pairs)

	Number of Bonds definitions: 2
	--------------------------------------------
	Bond interaction between [O-shO] using bond-type: CORE_SHELL_SPRING (96 bonds)
	  args: 1   arg[0]=869410.688484 
	Bond interaction between [Oa-shOa] using bond-type: CORE_SHELL_SPRING (0 bonds)
	  args: 1   arg[0]=869410.688484 

	Number of Bend definitions: 3
	--------------------------------------------
	Bend interaction between [shO-Si-shO] using bend-type: CORE_SHELL_BEND (288 bends)
	  args: 2   arg[0]=24337.465000 arg[1]=109.470000 
	Bend interaction between [shOa-Si-shO] using bend-type: CORE_SHELL_BEND (0 bends)
	  args: 2   arg[0]=24337.465000 arg[1]=109.470000 
	Bend interaction between [shOa-Al-shOa] using bend-type: CORE_SHELL_BEND (0 bends)
	  args: 2   arg[0]=24337.465000 arg[1]=109.470000 


	Number of core/shells:                           96
	Number of bonds:                                 96
	Number of bond-dipoles:                          0
	Number of bends:                                 288
	Number of Urey-Bradleys:                         0
	Number of Inversion bends:                       0
	Number of Torsions:                              0
	Number of Improper Torsions:                     0
	Number of Out-of-planes:                         0
	Number of bond-bond cross terms:                 0
	Number of bond-bend cross terms:                 0
	Number of bend-bend cross terms:                 0
	Number of stretch-torsion cross terms:           0
	Number of bend-torsion cross terms:              0

	Number of charges:                               144
	Number of bonddipoles:                           0

	Number of Intra VDW:                             431784
	Number of Intra Coulomb charge-charge:           431784
	Number of Intra Coulomb charge-bonddipole:       0
	Number of Intra Coulomb bonddipoles:             0
	Number of excluded Intra VDW:                    96
	Number of excluded intra charge-charge:          96
	Number of excluded intra charge-bonddipole:      0
	Number of excluded intra bonddipole-bonddipole:  0


	Number of 1-2 intra-framework pairs: 453
	Number of 1-3 intra-framework pairs: 1541
	Number of 1-4 intra-framework pairs: 2795
	Number of 1-2,1-3 intra-framework pairs: 1568
	Number of 1-2,1-3,1-4 intra-framework pairs: 2797
	Bond interactions are removed (excluded from VDW and Coulomb interactions)
	Bend interactions are *included* in the VDW and Coulomb interactions
	Torsion interactions are *included* in the VDW and Coulomb interactions
	Remove12NeighboursFromVDWInteraction no
	Remove13NeighboursFromVDWInteraction no
	Remove14NeighboursFromVDWInteraction no
	Remove12NeighboursFromChargeChargeInteraction no
	Remove13NeighboursFromChargeChargeInteraction no
	Remove14NeighboursFromChargeChargeInteraction no
	Remove11NeighboursFromChargeBondDipoleInteraction no
	Remove12NeighboursFromChargeBondDipoleInteraction no
	Remove13NeighboursFromChargeBondDipoleInteraction no
	Remove14NeighboursFromChargeBondDipoleInteraction no
	Remove12NeighboursFromBondDipoleBondDipoleInteraction no
	Remove13NeighboursFromBondDipoleBondDipoleInteraction no
	Remove14NeighboursFromBondDipoleBondDipoleInteraction no
	InternalFrameworkLennardJonesInteractions yes


System Properties
===========================================================================
Unit cell size: 15.031000 15.031000 15.031000
Cell angles (radians)  alpha: 1.570796 beta: 1.570796 gamma: 1.570796
Cell angles (degrees)  alpha: 90.000000 beta: 90.000000 gamma: 90.000000
Number of unitcells [a]: 1
Number of unitcells [b]: 1
Number of unitcells [c]: 1

TRICLINIC Boundary conditions: alpha!=90 or beta!=90 or gamma!=90

Cartesian axis A is collinear with crystallographic axis a
Cartesian axis B is collinear with (axb)xA
Cartesian axis C is collinear with (axb)

lengths of cell vectors:
 15.03100  15.03100  15.03100
cosines of cell angles:
  0.00000   0.00000   0.00000
perpendicular cell widths:
 15.03100  15.03100  15.03100
volume of the cell:  3395.968274791001 (A^3)

Orthogonalization matrix Box
Transforms fractional coordinates abc into orthonormal Cartesian coordinates xyz
Deorthogonalization matrix InverseBox
Transforms orthonormal Cartesian coordinates xyz into fractional coordinates xyz

Box[0]:
	   15.031000000000     0.000000000000     0.000000000000
	    0.000000000000    15.031000000000     0.000000000000
	    0.000000000000     0.000000000000    15.031000000000

Inverse box[0]:
	    0.066529173042    -0.000000000000    -0.000000000000
	    0.000000000000     0.066529173042    -0.000000000000
	    0.000000000000     0.000000000000     0.066529173042


Unitcell box[0]:
	   15.031000000000     0.000000000000     0.000000000000
	    0.000000000000    15.031000000000     0.000000000000
	    0.000000000000     0.000000000000    15.031000000000

Unitcell inverse box[0]:
	    0.066529173042    -0.000000000000    -0.000000000000
	    0.000000000000     0.066529173042    -0.000000000000
	    0.000000000000     0.000000000000     0.066529173042

lengths of cell vectors (inverse box):
  0.06653   0.06653   0.06653
cosines of cell angles (inverse box):
 -0.00000  -0.00000  -0.00000
perpendicular cell widths (inverse):
  0.06653   0.06653   0.06653
volume of the cell:  3395.968274791001 (A^3)

Number of Replica Cells: 2 2 2
Replica Box:
	   30.062000000000     0.000000000000     0.000000000000
	    0.000000000000    30.062000000000     0.000000000000
	    0.000000000000     0.000000000000    30.062000000000

Shift of the Replica cells:
	[cell:  0]     0.000000000000     0.000000000000     0.000000000000
	[cell:  1]     0.000000000000     0.000000000000    15.031000000000
	[cell:  2]     0.000000000000    15.031000000000     0.000000000000
	[cell:  3]     0.000000000000    15.031000000000    15.031000000000
	[cell:  4]    15.031000000000     0.000000000000     0.000000000000
	[cell:  5]    15.031000000000     0.000000000000    15.031000000000
	[cell:  6]    15.031000000000    15.031000000000     0.000000000000
	[cell:  7]    15.031000000000    15.031000000000    15.031000000000

Framework is simulated as 'flexible'
Number of framework atoms: 240
Number of framework atoms in the unit cell: 144
Framework Mass:  2884.046399999976 [g/mol]
Framework Density:  1400.834168156120 [kg/m^3]    0.7091079796874 [cm^3/g]
Helium void fraction:    0.00000000
Available pore volume:    0.00000000 [A^3]    0.00000000 [cm^3/g]
Conversion factor from molecule/unit cell -> kmol/m^3: 0.488974, kmol/m^3 accesible pore volume: inf

Number Of Frameworks (per system): 1
----------------------------------------------------------------------
Framework name: RHO
Citation:
	author name:        'L.B. McCusker and Ch. Baerlocher'
	title:              'The effect of dehydration upon the crystal structure of zeolite rho'
	journal abbrev.:    'J. Solid State Chem.'
	first page:         812
	last page:          822
	year:               1984
	special details:    'Proceedings of the 6th International Zeolite Conference, Reno 1983'
Space group: 229
	Identifier: 529
	short international Hermann-Mauguin symbol: I m -3 m
	long international Hermann-Mauguin symbol: I 4/m -3 2/m
	Hall symbol: -I 4 2 3
	Number of lattice translations: 2 [ (0,0,0) (0.5,0.5,0.5) ]
	acentric/centric: acentric
	chiral: yes
	enantiomorphic: no
	number of operators: 96
		'x,y,z'
		'-x,-y,z'
		'-x,y,-z'
		'x,-y,-z'
		'z,x,y'
		'z,-x,-y'
		'-z,-x,y'
		'-z,x,-y'
		'y,z,x'
		'-y,z,-x'
		'y,-z,-x'
		'-y,-z,x'
		'y,x,-z'
		'-y,-x,-z'
		'y,-x,z'
		'-y,x,z'
		'x,z,-y'
		'-x,z,y'
		'-x,-z,-y'
		'x,-z,y'
		'z,y,-x'
		'z,-y,x'
		'-z,y,x'
		'-z,-y,-x'
		'-x,-y,-z'
		'x,y,-z'
		'x,-y,z'
		'-x,y,z'
		'-z,-x,-y'
		'-z,x,y'
		'z,x,-y'
		'z,-x,y'
		'-y,-z,-x'
		'y,-z,x'
		'-y,z,x'
		'y,z,-x'
		'-y,-x,z'
		'y,x,z'
		'-y,x,-z'
		'y,-x,-z'
		'-x,-z,y'
		'x,-z,-y'
		'x,z,y'
		'-x,z,-y'
		'-z,-y,x'
		'-z,y,-x'
		'z,-y,-x'
		'z,y,x'
		'x+1/2,y+1/2,z+1/2'
		'-x+1/2,-y+1/2,z+1/2'
		'-x+1/2,y+1/2,-z+1/2'
		'x+1/2,-y+1/2,-z+1/2'
		'z+1/2,x+1/2,y+1/2'
		'z+1/2,-x+1/2,-y+1/2'
		'-z+1/2,-x+1/2,y+1/2'
		'-z+1/2,x+1/2,-y+1/2'
		'y+1/2,z+1/2,x+1/2'
		'-y+1/2,z+1/2,-x+1/2'
		'y+1/2,-z+1/2,-x+1/2'
		'-y+1/2,-z+1/2,x+1/2'
		'y+1/2,x+1/2,-z+1/2'
		'-y+1/2,-x+1/2,-z+1/2'
		'y+1/2,-x+1/2,z+1/2'
		'-y+1/2,x+1/2,z+1/2'
		'x+1/2,z+1/2,-y+1/2'
		'-x+1/2,z+1/2,y+1/2'
		'-x+1/2,-z+1/2,-y+1/2'
		'x+1/2,-z+1/2,y+1/2'
		'z+1/2,y+1/2,-x+1/2'
		'z+1/2,-y+1/2,x+1/2'
		'-z+1/2,y+1/2,x+1/2'
		'-z+1/2,-y+1/2,-x+1/2'
		'-x+1/2,-y+1/2,-z+1/2'
		'x+1/2,y+1/2,-z+1/2'
		'x+1/2,-y+1/2,z+1/2'
		'-x+1/2,y+1/2,z+1/2'
		'-z+1/2,-x+1/2,-y+1/2'
		'-z+1/2,x+1/2,y+1/2'
		'z+1/2,x+1/2,-y+1/2'
		'z+1/2,-x+1/2,y+1/2'
		'-y+1/2,-z+1/2,-x+1/2'
		'y+1/2,-z+1/2,x+1/2'
		'-y+1/2,z+1/2,x+1/2'
		'y+1/2,z+1/2,-x+1/2'
		'-y+1/2,-x+1/2,z+1/2'
		'y+1/2,x+1/2,z+1/2'
		'-y+1/2,x+1/2,-z+1/2'
		'y+1/2,-x+1/2,-z+1/2'
		'-x+1/2,-z+1/2,y+1/2'
		'x+1/2,-z+1/2,-y+1/2'
		'x+1/2,z+1/2,y+1/2'
		'-x+1/2,z+1/2,-y+1/2'
		'-z+1/2,-y+1/2,x+1/2'
		'-z+1/2,y+1/2,-x+1/2'
		'z+1/2,-y+1/2,-x+1/2'
		'z+1/2,y+1/2,x+1/2'
Framework is simulated as 'flexible'
Shift: 0.000000 0.000000 0.000000
Number of framework atoms: 240
Number of asymmetric atoms: 3
Number of free framework atoms: 240
Number of fixed framework atoms: 0
Number of framework atoms in the unit cell: 144
Framework Mass:  2864.846399999994 [g/mol]
Framework Density:  1400.834168156120 [kg/m^3]
Framework has net charge: -0.000000
         largest charge : 4.000000
         smallest charge: -2.869020


Current Atom Status
===========================================================================
Number of framework atoms        : 240
Number of cations molecules      : 0
Number of adsorbate molecules    : 0
Pseudo Atoms    0 [    UNIT]:    0 atoms
Pseudo Atoms    1 [       O]:   96 atoms
Pseudo Atoms    2 [      Oa]:    0 atoms
Pseudo Atoms    3 [     shO]:   96 atoms
Pseudo Atoms    4 [    shOa]:    0 atoms
Pseudo Atoms    5 [      Mg]:    0 atoms
Pseudo Atoms    6 [       P]:    0 atoms
Pseudo Atoms    7 [      Si]:   48 atoms
Pseudo Atoms    8 [      Al]:    0 atoms


Current (initial full energy) Energy Status
===========================================================================

Internal energy:
Host stretch energy:                                       438756.43136175
Host UreyBradley energy:                                        0.00000000
Host bend energy:                                           55634.06388589
Host inversion-bend energy:                                     0.00000000
Host torsion energy:                                            0.00000000
Host improper torsion energy:                                   0.00000000
Host out-of-plane energy:                                       0.00000000
Host stretch/stretch energy:                                    0.00000000
Host bend/bend energy:                                          0.00000000
Host stretch/bend energy:                                       0.00000000
Host stretch/torsion energy:                                    0.00000000
Host bend/torsion energy:                                       0.00000000

Adsorbate stretch energy:                                       0.00000000
Adsorbate UreyBradley energy:                                   0.00000000
Adsorbate bend energy:                                          0.00000000
Adsorbate inversion-bend energy:                                0.00000000
Adsorbate torsion energy:                                       0.00000000
Adsorbate improper torsion energy:                              0.00000000
Adsorbate out-of-plane energy:                                  0.00000000
Adsorbate stretch/stretch energy:                               0.00000000
Adsorbate bend/bend energy:                                     0.00000000
Adsorbate stretch/bend energy:                                  0.00000000
Adsorbate stretch/torsion energy:                               0.00000000
Adsorbate bend/torsion energy:                                  0.00000000
Adsorbate intra VDW energy:                                     0.00000000
Adsorbate intra charge-charge Coulomb energy:                   0.00000000
Adsorbate intra charge-bonddipole Coulomb energy:               0.00000000
Adsorbate intra bonddipole-bonddipole Coulomb energy:           0.00000000

Cation stretch energy:                                          0.00000000
Cation UreyBradley energy:                                      0.00000000
Cation bend energy:                                             0.00000000
Cation inversion-bend energy:                                   0.00000000
Cation torsion energy:                                          0.00000000
Cation improper torsion energy:                                 0.00000000
Cation out-of-plane energy:                                     0.00000000
Cation stretch/stretch energy:                                  0.00000000
Cation bend/bend energy:                                        0.00000000
Cation stretch/bend energy:                                     0.00000000
Cation stretch/torsion energy:                                  0.00000000
Cation bend/torsion energy:                                     0.00000000
Cation intra VDW energy:                                        0.00000000
Cation intra charge-charge Coulomb energy:                      0.00000000
Cation intra charge-bonddipole Coulomb energy:                  0.00000000
Cation intra bonddipole-bonddipole Coulomb energy:              0.00000000

Host/Host energy:                                     -69839870.04882590
	Host/Host VDW energy:                                  14923491.48071855
	Host/Host Coulomb energy:                             -84763361.52954446
	Host/Host charge-charge Real energy:                  -50520302.14068802
	Host/Host charge-charge Fourier energy:               -34243059.38885643
	Host/Host charge-bonddipole Real energy:                      0.00000000
	Host/Host charge-bonddipole Fourier energy:                   0.00000000
	Host/Host bondipole-bonddipole Real energy:                   0.00000000
	Host/Host bondipole-bonddipole Fourier energy:                0.00000000

Host/Adsorbate energy:                                        0.00000000
	Host/Adsorbate VDW energy:                                    0.00000000
	Host/Adsorbate Coulomb energy:                                0.00000000
	Host/Adsorbate charge-charge Real energy:                     0.00000000
	Host/Adsorbate charge-charge Fourier energy:                  0.00000000
	Host/Adsorbate charge-bonddipole Real energy:                 0.00000000
	Host/Adsorbate charge-bonddipole Fourier energy:              0.00000000
	Host/Adsorbate bondipole-bonddipole Real energy:              0.00000000
	Host/Adsorbate bondipole-bonddipole Fourier energy:           0.00000000

Host/Cation energy:                                           0.00000000
	Host/Cation VDW energy:                                       0.00000000
	Host/Cation Coulomb energy:                                   0.00000000
	Host/Cation charge-charge Real energy:                        0.00000000
	Host/Cation charge-charge Fourier energy:                     0.00000000
	Host/Cation charge-bonddipole Real energy:                    0.00000000
	Host/Cation charge-bonddipole Fourier energy:                 0.00000000
	Host/Cation bondipole-bonddipole Real energy:                 0.00000000
	Host/Cation bondipole-bonddipole Fourier energy:              0.00000000

Adsorbate/Adsorbate energy:                                        0.00000000
	Adsorbate/Adsorbate VDW energy:                                    0.00000000
	Adsorbate/Adsorbate Coulomb energy:                                0.00000000
	Adsorbate/Adsorbate charge-charge Real energy:                     0.00000000
	Adsorbate/Adsorbate charge-charge Fourier energy:                  0.00000000
	Adsorbate/Adsorbate charge-bonddipole Real energy:                 0.00000000
	Adsorbate/Adsorbate charge-bonddipole Fourier energy:              0.00000000
	Adsorbate/Adsorbate bondipole-bonddipole Real energy:              0.00000000
	Adsorbate/Adsorbate bondipole-bonddipole Fourier energy:           0.00000000

Adsorbate/Cation energy:                                           0.00000000
	Adsorbate/Cation VDW energy:                                       0.00000000
	Adsorbate/Cation Coulomb energy:                                   0.00000000
	Adsorbate/Cation charge-charge Real energy:                        0.00000000
	Adsorbate/Cation charge-charge Fourier energy:                     0.00000000
	Adsorbate/Cation charge-bonddipole Real energy:                    0.00000000
	Adsorbate/Cation charge-bonddipole Fourier energy:                 0.00000000
	Adsorbate/Cation bondipole-bonddipole Real energy:                 0.00000000
	Adsorbate/Cation bondipole-bonddipole Fourier energy:              0.00000000

Cation/Cation energy:                                           0.00000000
	Cation/Cation VDW energy:                                       0.00000000
	Cation/Cation Coulomb energy:                                   0.00000000
	Cation/Cation charge-charge Real energy:                        0.00000000
	Cation/Cation charge-charge Fourier energy:                     0.00000000
	Cation/Cation charge-bonddipole Real energy:                    0.00000000
	Cation/Cation charge-bonddipole Fourier energy:                 0.00000000
	Cation/Cation bondipole-bonddipole Real energy:                 0.00000000
	Cation/Cation bondipole-bonddipole Fourier energy:              0.00000000

Polarization energy:
	Host polarization energy:                                     0.00000000
	Adsorbate polarization energy:                                0.00000000
	Cation polarization energy:                                   0.00000000
	Host back-polarization energy:                                     0.00000000
	Adsorbate back-polarization energy:                                0.00000000
	Cation back-polarization energy:                                   0.00000000

Tail-correction energy:                                       0.00000000

Distance constraints energy:                                  0.00000000
Angle constraints energy:                                     0.00000000
Dihedral constraints energy:                                  0.00000000
Inversion-bend constraints energy:                            0.00000000
Out-of-plane distance constraints energy:                     0.00000000
Exclusion constraints energy:                                 0.00000000

===================================================================
Total energy: -69345479.553578272462
	Total Van der Waals: 14923491.480719
	Total Coulomb: -84763361.529544

	Total Polarization: 0.000000







+++++++++++++++++++++++++++++++++++++++++++++++++++++++++++++++++++++++++
Starting simulation
+++++++++++++++++++++++++++++++++++++++++++++++++++++++++++++++++++++++++

Total number of variables used in the minimization: 720
Number of cell-variables used in the minimization: 0
Total number of variables used for generalized coordinates in the minimization: 720
Total number of variables used for positions in the minimization: 720
Total number of variables used for orientation in the minimization: 0

Minimization initial volume:    3395.9682747910 [A^3]
Minimization initial energy: -69345479.5535777211 [K]
Minimization initial strain:       0.0000000000 [-]
Minimization initial box:      15.0310000000       0.0000000000       0.0000000000[-]
                                0.0000000000      15.0310000000       0.0000000000[-]
                                0.0000000000       0.0000000000      15.0310000000[-]

Beginning Baker minimization:
-----------------------------
Computing generalized Hessian matrix
Computing eigenvalues and vectors
Shifting parameter: -1660495.2856851430 Lowest eigenvalue:  -47495.2856851429
Iteration: 0 Energy: -69345479.5535777211 Volume:    3395.9682747910 RMS gradient: 3331.92  Max gradient: 290733 Number of negative eigenvalues: 19 Number of zero eigenvalues: 3
      Box:      15.0310000000       0.0000000000       0.0000000000     Strain derivative: 2851905.1759434859  209278.0528166342  150449.6105136454
                 0.0000000000      15.0310000000       0.0000000000                         209278.0528166336 2724705.6662822450   85786.9657338371
                 0.0000000000       0.0000000000      15.0310000000                         150449.6105136456   85786.9657338365 2594728.4733320461
      Lengths:      15.0310000000      15.0310000000      15.0310000000, Angles:      90.0000000000      90.0000000000      90.0000000000

Computing generalized Hessian matrix
Computing eigenvalues and vectors
Shifting parameter: -1178775.2796220779 Lowest eigenvalue:  -16325.2796220778
Iteration: 1 Energy: -70108315.6523425877 Volume:    3395.9682747910 RMS gradient: 2586.45  Max gradient: 229941 Number of negative eigenvalues: 11 Number of zero eigenvalues: 3
      Box:      15.0310000000       0.0000000000       0.0000000000     Strain derivative: 2611104.1810094020  132372.0522047218   93609.0282087024
                 0.0000000000      15.0310000000       0.0000000000                         132372.0522047222 2521729.0984595777   44820.8116139929
                 0.0000000000       0.0000000000      15.0310000000                          93609.0282087010   44820.8116139923 2425107.4376235032
      Lengths:      15.0310000000      15.0310000000      15.0310000000, Angles:      90.0000000000      90.0000000000      90.0000000000

Computing generalized Hessian matrix
Computing eigenvalues and vectors
Shifting parameter: -747161.5871751342 Lowest eigenvalue:     718.1753595945
Iteration: 2 Energy: -70677466.1544079334 Volume:    3395.9682747910 RMS gradient: 1866.84  Max gradient: 169917 Number of negative eigenvalues: 0 Number of zero eigenvalues: 3
      Box:      15.0310000000       0.0000000000       0.0000000000     Strain derivative: 2429492.7128470624   71121.9567883146   50568.2553275228
                 0.0000000000      15.0310000000       0.0000000000                          71121.9567883146 2372504.1122711021   14185.2360028048
                 0.0000000000       0.0000000000      15.0310000000                          50568.2553275232   14185.2360028040 2302588.5102051497
      Lengths:      15.0310000000      15.0310000000      15.0310000000, Angles:      90.0000000000      90.0000000000      90.0000000000

Computing generalized Hessian matrix
Computing eigenvalues and vectors
Shifting parameter: -411730.8258723455 Lowest eigenvalue:    3013.2556152010
Iteration: 3 Energy: -71059344.5820137113 Volume:    3395.9682747910 RMS gradient: 1210.65  Max gradient: 113635 Number of negative eigenvalues: 0 Number of zero eigenvalues: 3
      Box:      15.0310000000       0.0000000000       0.0000000000     Strain derivative: 2285987.6556504178   28236.5479207131   22475.9667400743
                 0.0000000000      15.0310000000       0.0000000000                          28236.5479207133 2253753.4025518238   -4699.2268464233
                 0.0000000000       0.0000000000      15.0310000000                          22475.9667400751   -4699.2268464234 2204256.9378035991
      Lengths:      15.0310000000      15.0310000000      15.0310000000, Angles:      90.0000000000      90.0000000000      90.0000000000

Computing generalized Hessian matrix
Computing eigenvalues and vectors
Shifting parameter: -222600.1670295901 Lowest eigenvalue:    3244.8221284479
Iteration: 4 Energy: -71274483.4184712619 Volume:    3395.9682747910 RMS gradient: 716.333  Max gradient: 69416.6 Number of negative eigenvalues: 0 Number of zero eigenvalues: 3
      Box:      15.0310000000       0.0000000000       0.0000000000     Strain derivative: 2134304.6158270920    6051.0939307288    8886.5967220686
                 0.0000000000      15.0310000000       0.0000000000                           6051.0939307282 2117179.9424208188  -11497.0937958905
                 0.0000000000       0.0000000000      15.0310000000                           8886.5967220685  -11497.0937958912 2081757.9295512412
      Lengths:      15.0310000000      15.0310000000      15.0310000000, Angles:      90.0000000000      90.0000000000      90.0000000000

Computing generalized Hessian matrix
Computing eigenvalues and vectors
Shifting parameter: -140354.9974661631 Lowest eigenvalue:    3207.0314433638
Iteration: 5 Energy: -71384484.7499986887 Volume:    3395.9682747910 RMS gradient: 438.972  Max gradient: 43082 Number of negative eigenvalues: 0 Number of zero eigenvalues: 3
      Box:      15.0310000000       0.0000000000       0.0000000000     Strain derivative: 1946642.9552241212   -1118.2732336122    3995.5865102994
                 0.0000000000      15.0310000000       0.0000000000                          -1118.2732336127 1936684.0531670514  -11169.7664990363
                 0.0000000000       0.0000000000      15.0310000000                           3995.5865102990  -11169.7664990362 1909973.4745779941
      Lengths:      15.0310000000      15.0310000000      15.0310000000, Angles:      90.0000000000      90.0000000000      90.0000000000

Computing generalized Hessian matrix
Computing eigenvalues and vectors
Shifting parameter:  -94723.0728938452 Lowest eigenvalue:    3066.5088402118
Iteration: 6 Energy: -71451290.6534437239 Volume:    3395.9682747910 RMS gradient: 281.628  Max gradient: 27284.6 Number of negative eigenvalues: 0 Number of zero eigenvalues: 3
      Box:      15.0310000000       0.0000000000       0.0000000000     Strain derivative: 1738818.5319815418   -2777.3899742543    1869.4493554436
                 0.0000000000      15.0310000000       0.0000000000                          -2777.3899742554 1732395.8822817823   -9107.8753423439
                 0.0000000000       0.0000000000      15.0310000000                           1869.4493554435   -9107.8753423452 1711766.3037854291
      Lengths:      15.0310000000      15.0310000000      15.0310000000, Angles:      90.0000000000      90.0000000000      90.0000000000

Computing generalized Hessian matrix
Computing eigenvalues and vectors
Shifting parameter:  -62002.1990979789 Lowest eigenvalue:    2881.5241806671
Iteration: 7 Energy: -71496776.6908899546 Volume:    3395.9682747910 RMS gradient: 182.025  Max gradient: 16956.6 Number of negative eigenvalues: 0 Number of zero eigenvalues: 3
      Box:      15.0310000000       0.0000000000       0.0000000000     Strain derivative: 1522983.4524599619   -2606.9462980285     678.8749914582
                 0.0000000000      15.0310000000       0.0000000000                          -2606.9462980289 1518420.2450026462   -6931.0862762891
                 0.0000000000       0.0000000000      15.0310000000                            678.8749914580   -6931.0862762894 1502552.7005857963
      Lengths:      15.0310000000      15.0310000000      15.0310000000, Angles:      90.0000000000      90.0000000000      90.0000000000

Computing generalized Hessian matrix
Computing eigenvalues and vectors
Shifting parameter:  -35805.5233353775 Lowest eigenvalue:    2673.2787562184
Iteration: 8 Energy: -71527938.0097581297 Volume:    3395.9682747910 RMS gradient: 113.093  Max gradient: 9875.84 Number of negative eigenvalues: 0 Number of zero eigenvalues: 3
      Box:      15.0310000000       0.0000000000       0.0000000000     Strain derivative: 1306130.9905617605   -1832.9709108327     -54.9760558664
                 0.0000000000      15.0310000000       0.0000000000                          -1832.9709108329 1302554.7515672776   -5028.4998540623
                 0.0000000000       0.0000000000      15.0310000000                            -54.9760558667   -5028.4998540635 1290609.8172574085
      Lengths:      15.0310000000      15.0310000000      15.0310000000, Angles:      90.0000000000      90.0000000000      90.0000000000

Computing generalized Hessian matrix
Computing eigenvalues and vectors
Shifting parameter:  -15051.0582880451 Lowest eigenvalue:    2452.0082987736
Iteration: 9 Energy: -71547569.6583042890 Volume:    3395.9682747910 RMS gradient: 61.205  Max gradient: 4883.27 Number of negative eigenvalues: 0 Number of zero eigenvalues: 3
      Box:      15.0310000000       0.0000000000       0.0000000000     Strain derivative: 1093413.9415654354    -953.8111259276    -466.6234107455
                 0.0000000000      15.0310000000       0.0000000000                           -953.8111259270 1090431.9291104558   -3417.9763725900
                 0.0000000000       0.0000000000      15.0310000000                           -466.6234107447   -3417.9763725895 1081904.9116757817
      Lengths:      15.0310000000      15.0310000000      15.0310000000, Angles:      90.0000000000      90.0000000000      90.0000000000

Computing generalized Hessian matrix
Computing eigenvalues and vectors
Shifting parameter:   -2089.6631933754 Lowest eigenvalue:    1878.4265603236
Iteration: 10 Energy: -71557068.9593061060 Volume:    3395.9682747910 RMS gradient: 19.2898  Max gradient: 1302.55 Number of negative eigenvalues: 0 Number of zero eigenvalues: 3
      Box:      15.0310000000       0.0000000000       0.0000000000     Strain derivative:  889877.7533982664    -221.1081911973    -531.7224114212
                 0.0000000000      15.0310000000       0.0000000000                           -221.1081911962  887622.5023558431   -1849.2339172497
                 0.0000000000       0.0000000000      15.0310000000                           -531.7224114205   -1849.2339172504  882750.9713735947
      Lengths:      15.0310000000      15.0310000000      15.0310000000, Angles:      90.0000000000      90.0000000000      90.0000000000

Computing generalized Hessian matrix
Computing eigenvalues and vectors
Shifting parameter:      -8.1684630116 Lowest eigenvalue:    1543.4792584233
Iteration: 11 Energy: -71558371.6830499470 Volume:    3395.9682747910 RMS gradient: 0.814702  Max gradient: 89.1968 Number of negative eigenvalues: 0 Number of zero eigenvalues: 3
      Box:      15.0310000000       0.0000000000       0.0000000000     Strain derivative:  789973.0017250164     -16.5159297953    -123.3240430357
                 0.0000000000      15.0310000000       0.0000000000                            -16.5159297953  789374.9593413537    -342.3765062135
                 0.0000000000       0.0000000000      15.0310000000                           -123.3240430369    -342.3765062130  788595.8675406710
      Lengths:      15.0310000000      15.0310000000      15.0310000000, Angles:      90.0000000000      90.0000000000      90.0000000000

Computing generalized Hessian matrix
Computing eigenvalues and vectors
Shifting parameter:      -0.0001741596 Lowest eigenvalue:    1535.2599513462
Iteration: 12 Energy: -71558376.6083988994 Volume:    3395.9682747910 RMS gradient: 0.00569959  Max gradient: 0.654139 Number of negative eigenvalues: 0 Number of zero eigenvalues: 3
      Box:      15.0310000000       0.0000000000       0.0000000000     Strain derivative:  786628.7774204038      -1.1968452551      -0.1294103890
                 0.0000000000      15.0310000000       0.0000000000                             -1.1968452558  786626.9925674448      -1.7089592319
                 0.0000000000       0.0000000000      15.0310000000                             -0.1294103896      -1.7089592324  786629.7936077639
      Lengths:      15.0310000000      15.0310000000      15.0310000000, Angles:      90.0000000000      90.0000000000      90.0000000000

Computing generalized Hessian matrix
Computing eigenvalues and vectors
Shifting parameter:      -0.0000000000 Lowest eigenvalue:    1535.2214104447
Iteration: 13 Energy: -71558376.6085000485 Volume:    3395.9682747910 RMS gradient: 1.77227e-07  Max gradient: 2.92612e-05 Number of negative eigenvalues: 0 Number of zero eigenvalues: 3
      Box:      15.0310000000       0.0000000000       0.0000000000     Strain derivative:  786615.4001148447      -0.0000353648      -0.0000394487
                 0.0000000000      15.0310000000       0.0000000000                             -0.0000353654  786615.4000874211      -0.0000362391
                 0.0000000000       0.0000000000      15.0310000000                             -0.0000394489      -0.0000362389  786615.4000376657
      Lengths:      15.0310000000      15.0310000000      15.0310000000, Angles:      90.0000000000      90.0000000000      90.0000000000

Computing generalized Hessian matrix
Computing eigenvalues and vectors
Shifting parameter:      -0.0000000000 Lowest eigenvalue:    1535.2214087801
Iteration: 14 Energy: -71558376.6085041761 Volume:    3395.9682747910 RMS gradient: 2.0432e-11  Max gradient: 3.0083e-09 Number of negative eigenvalues: 0 Number of zero eigenvalues: 3
      Box:      15.0310000000       0.0000000000       0.0000000000     Strain derivative:  786615.3995869748      -0.0000000071      -0.0000000041
                 0.0000000000      15.0310000000       0.0000000000                             -0.0000000075  786615.3995872648       0.0000000008
                 0.0000000000       0.0000000000      15.0310000000                             -0.0000000042       0.0000000005  786615.3995871932
      Lengths:      15.0310000000      15.0310000000      15.0310000000, Angles:      90.0000000000      90.0000000000      90.0000000000

SUCCES: RMS Gradient tolerance 1e-06 reached (2.0432e-11)
        Max Gradient tolerance 1e-06 reached (3.0083e-09)


Variable vector:
================
x: 0 = 3.77727
x: 1 = 1.56345
x: 2 = 5.99244
x: 3 = 3.33056
x: 4 = 0.0198882
x: 5 = 5.7719
x: 6 = 2.5202
x: 7 = 2.52057
x: 8 = 5.63646
x: 9 = -1.52405
x: 10 = 3.77764
x: 11 = 5.99244
x: 12 = 0.0195153
x: 13 = 3.33093
x: 14 = 5.7719
x: 15 = -2.48117
x: 16 = 2.52057
x: 17 = 5.63646
x: 18 = -3.73823
x: 19 = -1.52367
x: 20 = 5.99244
x: 21 = -3.29153
x: 22 = 0.0198882
x: 23 = 5.7719
x: 24 = -2.48117
x: 25 = -2.48079
x: 26 = 5.63646
x: 27 = 1.56308
x: 28 = -3.73786
x: 29 = 5.99244
x: 30 = 0.0195153
x: 31 = -3.29115
x: 32 = 5.7719
x: 33 = 2.5202
x: 34 = -2.48079
x: 35 = 5.63646
x: 36 = 3.77727
x: 37 = -1.52367
x: 38 = -5.95143
x: 39 = 3.33056
x: 40 = 0.0198882
x: 41 = -5.73089
x: 42 = 2.5202
x: 43 = -2.48079
x: 44 = -5.59545
x: 45 = 1.56308
x: 46 = 3.77764
x: 47 = -5.95143
x: 48 = 0.0195153
x: 49 = 3.33093
x: 50 = -5.73089
x: 51 = 2.5202
x: 52 = 2.52057
x: 53 = -5.59545
x: 54 = -3.73823
x: 55 = 1.56345
x: 56 = -5.95143
x: 57 = -3.29153
x: 58 = 0.0198882
x: 59 = -5.73089
x: 60 = -2.48117
x: 61 = 2.52057
x: 62 = -5.59545
x: 63 = -1.52405
x: 64 = -3.73786
x: 65 = -5.95143
x: 66 = 0.0195153
x: 67 = -3.29115
x: 68 = -5.73089
x: 69 = -2.48117
x: 70 = -2.48079
x: 71 = -5.59545
x: 72 = 5.99145
x: 73 = 3.77764
x: 74 = 1.56407
x: 75 = 5.77091
x: 76 = 3.33093
x: 77 = 0.0205047
x: 78 = 5.63547
x: 79 = 2.52057
x: 80 = 2.52119
x: 81 = -3.73823
x: 82 = 5.99183
x: 83 = 1.56407
x: 84 = -3.29153
x: 85 = 5.77129
x: 86 = 0.0205047
x: 87 = -2.48117
x: 88 = 5.63585
x: 89 = 2.52119
x: 90 = -5.95242
x: 91 = -3.73786
x: 92 = 1.56407
x: 93 = -5.73188
x: 94 = -3.29115
x: 95 = 0.0205047
x: 96 = -5.59644
x: 97 = -2.48079
x: 98 = 2.52119
x: 99 = 3.77727
x: 100 = -5.95205
x: 101 = 1.56407
x: 102 = 3.33056
x: 103 = -5.73151
x: 104 = 0.0205047
x: 105 = 2.5202
x: 106 = -5.59607
x: 107 = 2.52119
x: 108 = 5.99145
x: 109 = -3.73786
x: 110 = -1.52306
x: 111 = 5.77091
x: 112 = -3.29115
x: 113 = 0.0205047
x: 114 = 5.63547
x: 115 = -2.48079
x: 116 = -2.48018
x: 117 = 3.77727
x: 118 = 5.99183
x: 119 = -1.52306
x: 120 = 3.33056
x: 121 = 5.77129
x: 122 = 0.0205047
x: 123 = 2.5202
x: 124 = 5.63585
x: 125 = -2.48018
x: 126 = -5.95242
x: 127 = 3.77764
x: 128 = -1.52306
x: 129 = -5.73188
x: 130 = 3.33093
x: 131 = 0.0205047
x: 132 = -5.59644
x: 133 = 2.52057
x: 134 = -2.48018
x: 135 = -3.73823
x: 136 = -5.95205
x: 137 = -1.52306
x: 138 = -3.29153
x: 139 = -5.73151
x: 140 = 0.0205047
x: 141 = -2.48117
x: 142 = -5.59607
x: 143 = -2.48018
x: 144 = 1.56308
x: 145 = 5.99183
x: 146 = 3.77825
x: 147 = 0.0195153
x: 148 = 5.77129
x: 149 = 3.33155
x: 150 = 2.5202
x: 151 = 5.63585
x: 152 = 2.52119
x: 153 = 1.56308
x: 154 = -5.95205
x: 155 = -3.73725
x: 156 = 0.0195153
x: 157 = -5.73151
x: 158 = -3.29054
x: 159 = 2.5202
x: 160 = -5.59607
x: 161 = -2.48018
x: 162 = 5.99145
x: 163 = 1.56345
x: 164 = -3.73725
x: 165 = 5.77091
x: 166 = 0.0198882
x: 167 = -3.29054
x: 168 = 5.63547
x: 169 = 2.52057
x: 170 = -2.48018
x: 171 = -1.52405
x: 172 = 5.99183
x: 173 = -3.73725
x: 174 = 0.0195153
x: 175 = 5.77129
x: 176 = -3.29054
x: 177 = -2.48117
x: 178 = 5.63585
x: 179 = -2.48018
x: 180 = -5.95242
x: 181 = -1.52367
x: 182 = -3.73725
x: 183 = -5.73188
x: 184 = 0.0198882
x: 185 = -3.29054
x: 186 = -5.59644
x: 187 = -2.48079
x: 188 = -2.48018
x: 189 = -1.52405
x: 190 = -5.95205
x: 191 = 3.77825
x: 192 = 0.0195153
x: 193 = -5.73151
x: 194 = 3.33155
x: 195 = -2.48117
x: 196 = -5.59607
x: 197 = 2.52119
x: 198 = 5.99145
x: 199 = -1.52367
x: 200 = 3.77825
x: 201 = 5.77091
x: 202 = 0.0198882
x: 203 = 3.33155
x: 204 = 5.63547
x: 205 = -2.48079
x: 206 = 2.52119
x: 207 = -5.95242
x: 208 = 1.56345
x: 209 = 3.77825
x: 210 = -5.73188
x: 211 = 0.0198882
x: 212 = 3.33155
x: 213 = -5.59644
x: 214 = 2.52057
x: 215 = 2.52119
x: 216 = -3.73823
x: 217 = -1.52367
x: 218 = -5.95143
x: 219 = 1.56308
x: 220 = -3.73786
x: 221 = -5.95143
x: 222 = 3.77727
x: 223 = 1.56345
x: 224 = -5.95143
x: 225 = -1.52405
x: 226 = 3.77764
x: 227 = -5.95143
x: 228 = -3.73823
x: 229 = 1.56345
x: 230 = 5.99244
x: 231 = -1.52405
x: 232 = -3.73786
x: 233 = 5.99244
x: 234 = 3.77727
x: 235 = -1.52367
x: 236 = 5.99244
x: 237 = 1.56308
x: 238 = 3.77764
x: 239 = 5.99244
x: 240 = -5.95242
x: 241 = -3.73786
x: 242 = -1.52306
x: 243 = 3.77727
x: 244 = -5.95205
x: 245 = -1.52306
x: 246 = 5.99145
x: 247 = 3.77764
x: 248 = -1.52306
x: 249 = -3.73823
x: 250 = 5.99183
x: 251 = -1.52306
x: 252 = -5.95242
x: 253 = 3.77764
x: 254 = 1.56407
x: 255 = -3.73823
x: 256 = -5.95205
x: 257 = 1.56407
x: 258 = 5.99145
x: 259 = -3.73786
x: 260 = 1.56407
x: 261 = 3.77727
x: 262 = 5.99183
x: 263 = 1.56407
x: 264 = -1.52405
x: 265 = -5.95205
x: 266 = -3.73725
x: 267 = -1.52405
x: 268 = 5.99183
x: 269 = 3.77825
x: 270 = -5.95242
x: 271 = -1.52367
x: 272 = 3.77825
x: 273 = 1.56308
x: 274 = -5.95205
x: 275 = 3.77825
x: 276 = 5.99145
x: 277 = 1.56345
x: 278 = 3.77825
x: 279 = 1.56308
x: 280 = 5.99183
x: 281 = -3.73725
x: 282 = -5.95242
x: 283 = 1.56345
x: 284 = -3.73725
x: 285 = 5.99145
x: 286 = -1.52367
x: 287 = -3.73725
x: 288 = 10.8461
x: 289 = 7.53539
x: 290 = 13.2874
x: 291 = 10.0357
x: 292 = 10.0361
x: 293 = 13.152
x: 294 = 7.53502
x: 295 = 10.8464
x: 296 = 13.2874
x: 297 = 5.03433
x: 298 = 10.0361
x: 299 = 13.152
x: 300 = 4.22397
x: 301 = 7.53539
x: 302 = 13.2874
x: 303 = 5.03433
x: 304 = 5.03471
x: 305 = 13.152
x: 306 = 7.53502
x: 307 = 4.22435
x: 308 = 13.2874
x: 309 = 10.0357
x: 310 = 5.03471
x: 311 = 13.152
x: 312 = 10.8461
x: 313 = 7.53539
x: 314 = 1.78461
x: 315 = 10.0357
x: 316 = 5.03471
x: 317 = 1.92005
x: 318 = 7.53502
x: 319 = 10.8464
x: 320 = 1.78461
x: 321 = 10.0357
x: 322 = 10.0361
x: 323 = 1.92005
x: 324 = 4.22397
x: 325 = 7.53539
x: 326 = 1.78461
x: 327 = 5.03433
x: 328 = 10.0361
x: 329 = 1.92005
x: 330 = 7.53502
x: 331 = 4.22435
x: 332 = 1.78461
x: 333 = 5.03433
x: 334 = 5.03471
x: 335 = 1.92005
x: 336 = 13.2864
x: 337 = 10.8464
x: 338 = 7.536
x: 339 = 13.151
x: 340 = 10.0361
x: 341 = 10.0367
x: 342 = 4.22397
x: 343 = 13.2868
x: 344 = 7.536
x: 345 = 5.03433
x: 346 = 13.1513
x: 347 = 10.0367
x: 348 = 1.78362
x: 349 = 4.22435
x: 350 = 7.536
x: 351 = 1.91906
x: 352 = 5.03471
x: 353 = 10.0367
x: 354 = 10.8461
x: 355 = 1.78399
x: 356 = 7.536
x: 357 = 10.0357
x: 358 = 1.91943
x: 359 = 10.0367
x: 360 = 13.2864
x: 361 = 4.22435
x: 362 = 7.536
x: 363 = 13.151
x: 364 = 5.03471
x: 365 = 5.03532
x: 366 = 10.8461
x: 367 = 13.2868
x: 368 = 7.536
x: 369 = 10.0357
x: 370 = 13.1513
x: 371 = 5.03532
x: 372 = 1.78362
x: 373 = 10.8464
x: 374 = 7.536
x: 375 = 1.91906
x: 376 = 10.0361
x: 377 = 5.03532
x: 378 = 4.22397
x: 379 = 1.78399
x: 380 = 7.536
x: 381 = 5.03433
x: 382 = 1.91943
x: 383 = 5.03532
x: 384 = 7.53502
x: 385 = 13.2868
x: 386 = 10.847
x: 387 = 10.0357
x: 388 = 13.1513
x: 389 = 10.0367
x: 390 = 7.53502
x: 391 = 1.78399
x: 392 = 4.22496
x: 393 = 10.0357
x: 394 = 1.91943
x: 395 = 5.03532
x: 396 = 13.2864
x: 397 = 7.53539
x: 398 = 4.22496
x: 399 = 13.151
x: 400 = 10.0361
x: 401 = 5.03532
x: 402 = 7.53502
x: 403 = 13.2868
x: 404 = 4.22496
x: 405 = 5.03433
x: 406 = 13.1513
x: 407 = 5.03532
x: 408 = 1.78362
x: 409 = 7.53539
x: 410 = 4.22496
x: 411 = 1.91906
x: 412 = 5.03471
x: 413 = 5.03532
x: 414 = 7.53502
x: 415 = 1.78399
x: 416 = 10.847
x: 417 = 5.03433
x: 418 = 1.91943
x: 419 = 10.0367
x: 420 = 13.2864
x: 421 = 7.53539
x: 422 = 10.847
x: 423 = 13.151
x: 424 = 5.03471
x: 425 = 10.0367
x: 426 = 1.78362
x: 427 = 7.53539
x: 428 = 10.847
x: 429 = 1.91906
x: 430 = 10.0361
x: 431 = 10.0367
x: 432 = 3.42486
x: 433 = 0.0198882
x: 434 = 5.81814
x: 435 = 2.5524
x: 436 = 2.55278
x: 437 = 5.71276
x: 438 = 0.0195153
x: 439 = 3.42523
x: 440 = 5.81814
x: 441 = -2.51337
x: 442 = 2.55278
x: 443 = 5.71276
x: 444 = -3.38583
x: 445 = 0.0198882
x: 446 = 5.81814
x: 447 = -2.51337
x: 448 = -2.513
x: 449 = 5.71276
x: 450 = 0.0195153
x: 451 = -3.38546
x: 452 = 5.81814
x: 453 = 2.5524
x: 454 = -2.513
x: 455 = 5.71276
x: 456 = 3.42486
x: 457 = 0.0198882
x: 458 = -5.77714
x: 459 = 2.5524
x: 460 = -2.513
x: 461 = -5.67175
x: 462 = 0.0195153
x: 463 = 3.42523
x: 464 = -5.77714
x: 465 = 2.5524
x: 466 = 2.55278
x: 467 = -5.67175
x: 468 = -3.38583
x: 469 = 0.0198882
x: 470 = -5.77714
x: 471 = -2.51337
x: 472 = 2.55278
x: 473 = -5.67175
x: 474 = 0.0195153
x: 475 = -3.38546
x: 476 = -5.77714
x: 477 = -2.51337
x: 478 = -2.513
x: 479 = -5.67175
x: 480 = 5.81716
x: 481 = 3.42523
x: 482 = 0.0205047
x: 483 = 5.71177
x: 484 = 2.55278
x: 485 = 2.55339
x: 486 = -3.38583
x: 487 = 5.81753
x: 488 = 0.0205047
x: 489 = -2.51337
x: 490 = 5.71214
x: 491 = 2.55339
x: 492 = -5.77812
x: 493 = -3.38546
x: 494 = 0.0205047
x: 495 = -5.67274
x: 496 = -2.513
x: 497 = 2.55339
x: 498 = 3.42486
x: 499 = -5.77775
x: 500 = 0.0205047
x: 501 = 2.5524
x: 502 = -5.67237
x: 503 = 2.55339
x: 504 = 5.81716
x: 505 = -3.38546
x: 506 = 0.0205047
x: 507 = 5.71177
x: 508 = -2.513
x: 509 = -2.51238
x: 510 = 3.42486
x: 511 = 5.81753
x: 512 = 0.0205047
x: 513 = 2.5524
x: 514 = 5.71214
x: 515 = -2.51238
x: 516 = -5.77812
x: 517 = 3.42523
x: 518 = 0.0205047
x: 519 = -5.67274
x: 520 = 2.55278
x: 521 = -2.51238
x: 522 = -3.38583
x: 523 = -5.77775
x: 524 = 0.0205047
x: 525 = -2.51337
x: 526 = -5.67237
x: 527 = -2.51238
x: 528 = 0.0195153
x: 529 = 5.81753
x: 530 = 3.42585
x: 531 = 2.5524
x: 532 = 5.71214
x: 533 = 2.55339
x: 534 = 0.0195153
x: 535 = -5.77775
x: 536 = -3.38484
x: 537 = 2.5524
x: 538 = -5.67237
x: 539 = -2.51238
x: 540 = 5.81716
x: 541 = 0.0198882
x: 542 = -3.38484
x: 543 = 5.71177
x: 544 = 2.55278
x: 545 = -2.51238
x: 546 = 0.0195153
x: 547 = 5.81753
x: 548 = -3.38484
x: 549 = -2.51337
x: 550 = 5.71214
x: 551 = -2.51238
x: 552 = -5.77812
x: 553 = 0.0198882
x: 554 = -3.38484
x: 555 = -5.67274
x: 556 = -2.513
x: 557 = -2.51238
x: 558 = 0.0195153
x: 559 = -5.77775
x: 560 = 3.42585
x: 561 = -2.51337
x: 562 = -5.67237
x: 563 = 2.55339
x: 564 = 5.81716
x: 565 = 0.0198882
x: 566 = 3.42585
x: 567 = 5.71177
x: 568 = -2.513
x: 569 = 2.55339
x: 570 = -5.77812
x: 571 = 0.0198882
x: 572 = 3.42585
x: 573 = -5.67274
x: 574 = 2.55278
x: 575 = 2.55339
x: 576 = 10.9404
x: 577 = 7.53539
x: 578 = 13.3336
x: 579 = 10.0679
x: 580 = 10.0683
x: 581 = 13.2283
x: 582 = 7.53502
x: 583 = 10.9407
x: 584 = 13.3336
x: 585 = 5.00213
x: 586 = 10.0683
x: 587 = 13.2283
x: 588 = 4.12967
x: 589 = 7.53539
x: 590 = 13.3336
x: 591 = 5.00213
x: 592 = 5.0025
x: 593 = 13.2283
x: 594 = 7.53502
x: 595 = 4.13004
x: 596 = 13.3336
x: 597 = 10.0679
x: 598 = 5.0025
x: 599 = 13.2283
x: 600 = 10.9404
x: 601 = 7.53539
x: 602 = 1.73836
x: 603 = 10.0679
x: 604 = 5.0025
x: 605 = 1.84375
x: 606 = 7.53502
x: 607 = 10.9407
x: 608 = 1.73836
x: 609 = 10.0679
x: 610 = 10.0683
x: 611 = 1.84375
x: 612 = 4.12967
x: 613 = 7.53539
x: 614 = 1.73836
x: 615 = 5.00213
x: 616 = 10.0683
x: 617 = 1.84375
x: 618 = 7.53502
x: 619 = 4.13004
x: 620 = 1.73836
x: 621 = 5.00213
x: 622 = 5.0025
x: 623 = 1.84375
x: 624 = 13.3327
x: 625 = 10.9407
x: 626 = 7.536
x: 627 = 13.2273
x: 628 = 10.0683
x: 629 = 10.0689
x: 630 = 4.12967
x: 631 = 13.333
x: 632 = 7.536
x: 633 = 5.00213
x: 634 = 13.2276
x: 635 = 10.0689
x: 636 = 1.73738
x: 637 = 4.13004
x: 638 = 7.536
x: 639 = 1.84276
x: 640 = 5.0025
x: 641 = 10.0689
x: 642 = 10.9404
x: 643 = 1.73775
x: 644 = 7.536
x: 645 = 10.0679
x: 646 = 1.84313
x: 647 = 10.0689
x: 648 = 13.3327
x: 649 = 4.13004
x: 650 = 7.536
x: 651 = 13.2273
x: 652 = 5.0025
x: 653 = 5.00312
x: 654 = 10.9404
x: 655 = 13.333
x: 656 = 7.536
x: 657 = 10.0679
x: 658 = 13.2276
x: 659 = 5.00312
x: 660 = 1.73738
x: 661 = 10.9407
x: 662 = 7.536
x: 663 = 1.84276
x: 664 = 10.0683
x: 665 = 5.00312
x: 666 = 4.12967
x: 667 = 1.73775
x: 668 = 7.536
x: 669 = 5.00213
x: 670 = 1.84313
x: 671 = 5.00312
x: 672 = 7.53502
x: 673 = 13.333
x: 674 = 10.9414
x: 675 = 10.0679
x: 676 = 13.2276
x: 677 = 10.0689
x: 678 = 7.53502
x: 679 = 1.73775
x: 680 = 4.13066
x: 681 = 10.0679
x: 682 = 1.84313
x: 683 = 5.00312
x: 684 = 13.3327
x: 685 = 7.53539
x: 686 = 4.13066
x: 687 = 13.2273
x: 688 = 10.0683
x: 689 = 5.00312
x: 690 = 7.53502
x: 691 = 13.333
x: 692 = 4.13066
x: 693 = 5.00213
x: 694 = 13.2276
x: 695 = 5.00312
x: 696 = 1.73738
x: 697 = 7.53539
x: 698 = 4.13066
x: 699 = 1.84276
x: 700 = 5.0025
x: 701 = 5.00312
x: 702 = 7.53502
x: 703 = 1.73775
x: 704 = 10.9414
x: 705 = 5.00213
x: 706 = 1.84313
x: 707 = 10.0689
x: 708 = 13.3327
x: 709 = 7.53539
x: 710 = 10.9414
x: 711 = 13.2273
x: 712 = 5.0025
x: 713 = 10.0689
x: 714 = 1.73738
x: 715 = 7.53539
x: 716 = 10.9414
x: 717 = 1.84276
x: 718 = 10.0683
x: 719 = 10.0689




Gradient vector:
================
Gradient: 0 = -3.79024e-10
Gradient: 1 = 1.16629e-10
Gradient: 2 = -9.71893e-11
Gradient: 3 = 1.9827e-10
Gradient: 4 = 5.48702e-11
Gradient: 5 = 1.89004e-10
Gradient: 6 = 1.56433e-10
Gradient: 7 = 1.04251e-10
Gradient: 8 = 3.19119e-10
Gradient: 9 = -1.04474e-09
Gradient: 10 = 3.42403e-10
Gradient: 11 = -6.45616e-10
Gradient: 12 = -2.1244e-10
Gradient: 13 = -8.42419e-11
Gradient: 14 = 2.34593e-10
Gradient: 15 = -4.17629e-10
Gradient: 16 = 1.90369e-10
Gradient: 17 = 5.03178e-10
Gradient: 18 = 4.81458e-11
Gradient: 19 = -4.22126e-10
Gradient: 20 = -5.71605e-11
Gradient: 21 = 8.07177e-11
Gradient: 22 = 6.17732e-11
Gradient: 23 = -6.73026e-11
Gradient: 24 = 2.46985e-10
Gradient: 25 = -5.11022e-10
Gradient: 26 = -2.28169e-10
Gradient: 27 = 1.94436e-10
Gradient: 28 = 1.48971e-10
Gradient: 29 = 1.03806e-10
Gradient: 30 = -8.84827e-11
Gradient: 31 = -1.55751e-10
Gradient: 32 = 3.83636e-10
Gradient: 33 = -2.68074e-10
Gradient: 34 = -4.71346e-10
Gradient: 35 = -2.63753e-11
Gradient: 36 = -1.06844e-09
Gradient: 37 = -1.79567e-10
Gradient: 38 = 1.01834e-09
Gradient: 39 = 1.1562e-10
Gradient: 40 = -7.37828e-11
Gradient: 41 = 2.26805e-11
Gradient: 42 = -5.58202e-11
Gradient: 43 = 5.56497e-11
Gradient: 44 = 2.63867e-10
Gradient: 45 = 6.99723e-10
Gradient: 46 = 5.86316e-10
Gradient: 47 = 9.79772e-11
Gradient: 48 = -4.04655e-11
Gradient: 49 = 1.34037e-10
Gradient: 50 = -2.1754e-10
Gradient: 51 = -1.09253e-10
Gradient: 52 = 1.29432e-10
Gradient: 53 = -2.85695e-10
Gradient: 54 = 5.892e-11
Gradient: 55 = 7.3194e-11
Gradient: 56 = -3.59825e-10
Gradient: 57 = -2.67619e-10
Gradient: 58 = 1.12207e-10
Gradient: 59 = 1.58025e-11
Gradient: 60 = 2.6472e-10
Gradient: 61 = 8.0604e-11
Gradient: 62 = -2.95472e-10
Gradient: 63 = 1.29231e-09
Gradient: 64 = 1.38254e-09
Gradient: 65 = -5.62821e-10
Gradient: 66 = 5.83213e-11
Gradient: 67 = -6.41194e-11
Gradient: 68 = 1.30058e-10
Gradient: 69 = -1.73827e-10
Gradient: 70 = 3.23837e-10
Gradient: 71 = -5.3501e-10
Gradient: 72 = -2.8969e-10
Gradient: 73 = -3.42357e-10
Gradient: 74 = 5.48628e-10
Gradient: 75 = -4.78224e-10
Gradient: 76 = -6.4631e-10
Gradient: 77 = 9.37109e-11
Gradient: 78 = -2.07365e-10
Gradient: 79 = -1.01181e-10
Gradient: 80 = -3.1082e-10
Gradient: 81 = -3.87335e-10
Gradient: 82 = -8.96045e-10
Gradient: 83 = 8.32226e-10
Gradient: 84 = 3.4936e-10
Gradient: 85 = -3.26452e-10
Gradient: 86 = 3.56932e-10
Gradient: 87 = -6.20844e-10
Gradient: 88 = 2.70234e-10
Gradient: 89 = 3.17243e-10
Gradient: 90 = -8.60786e-10
Gradient: 91 = 9.87692e-10
Gradient: 92 = -5.93701e-10
Gradient: 93 = -5.88784e-10
Gradient: 94 = -1.2767e-10
Gradient: 95 = -1.26368e-10
Gradient: 96 = -1.4586e-10
Gradient: 97 = 4.50825e-10
Gradient: 98 = 1.64846e-11
Gradient: 99 = -1.09685e-09
Gradient: 100 = 6.23002e-10
Gradient: 101 = -5.76703e-10
Gradient: 102 = 2.88651e-10
Gradient: 103 = -4.56566e-10
Gradient: 104 = -2.79652e-10
Gradient: 105 = -3.80851e-12
Gradient: 106 = -2.95586e-11
Gradient: 107 = -8.74252e-11
Gradient: 108 = 3.9392e-10
Gradient: 109 = 9.20201e-10
Gradient: 110 = 1.37962e-09
Gradient: 111 = 4.41332e-10
Gradient: 112 = 1.06752e-10
Gradient: 113 = -2.20105e-10
Gradient: 114 = -3.5368e-10
Gradient: 115 = -9.9476e-12
Gradient: 116 = 3.19574e-10
Gradient: 117 = -3.34016e-10
Gradient: 118 = 3.80217e-10
Gradient: 119 = 6.69918e-10
Gradient: 120 = -8.84484e-11
Gradient: 121 = -3.33102e-10
Gradient: 122 = -4.64009e-11
Gradient: 123 = -6.40625e-11
Gradient: 124 = 6.44718e-10
Gradient: 125 = -2.99622e-10
Gradient: 126 = -2.76157e-10
Gradient: 127 = -8.84511e-10
Gradient: 128 = 1.78067e-10
Gradient: 129 = 4.12172e-10
Gradient: 130 = -3.2901e-10
Gradient: 131 = 2.4819e-10
Gradient: 132 = -6.13909e-12
Gradient: 133 = -2.38401e-10
Gradient: 134 = -2.64663e-10
Gradient: 135 = -2.46593e-09
Gradient: 136 = -6.53533e-10
Gradient: 137 = -1.33213e-09
Gradient: 138 = 2.4329e-11
Gradient: 139 = -3.23269e-10
Gradient: 140 = 9.98716e-11
Gradient: 141 = -2.83251e-10
Gradient: 142 = -1.64846e-10
Gradient: 143 = 1.28182e-10
Gradient: 144 = -6.09856e-11
Gradient: 145 = 1.54821e-10
Gradient: 146 = -5.04666e-10
Gradient: 147 = 6.7637e-12
Gradient: 148 = -3.87274e-10
Gradient: 149 = -5.96856e-11
Gradient: 150 = 1.92415e-10
Gradient: 151 = 4.33147e-10
Gradient: 152 = 1.82183e-10
Gradient: 153 = 4.79038e-10
Gradient: 154 = 9.80213e-10
Gradient: 155 = -1.46815e-09
Gradient: 156 = -5.47007e-11
Gradient: 157 = -4.26894e-11
Gradient: 158 = -2.77169e-10
Gradient: 159 = -2.63867e-10
Gradient: 160 = -1.73941e-11
Gradient: 161 = -1.5018e-10
Gradient: 162 = -7.80707e-10
Gradient: 163 = 4.01586e-10
Gradient: 164 = -5.83945e-10
Gradient: 165 = -1.36083e-10
Gradient: 166 = -1.0029e-11
Gradient: 167 = 7.77618e-11
Gradient: 168 = 3.52316e-10
Gradient: 169 = 1.07548e-10
Gradient: 170 = -2.95699e-10
Gradient: 171 = 2.31864e-10
Gradient: 172 = -9.81103e-10
Gradient: 173 = 6.95495e-10
Gradient: 174 = -2.25864e-10
Gradient: 175 = -1.80933e-10
Gradient: 176 = -4.46789e-11
Gradient: 177 = 1.7377e-10
Gradient: 178 = -1.60412e-10
Gradient: 179 = -4.70095e-11
Gradient: 180 = -1.1313e-09
Gradient: 181 = 1.34021e-09
Gradient: 182 = -9.88896e-10
Gradient: 183 = -3.47882e-11
Gradient: 184 = -1.71366e-10
Gradient: 185 = -6.85532e-10
Gradient: 186 = -1.16984e-10
Gradient: 187 = 7.74207e-11
Gradient: 188 = 1.11129e-10
Gradient: 189 = -1.22667e-09
Gradient: 190 = 8.40239e-10
Gradient: 191 = -2.11271e-09
Gradient: 192 = 7.39492e-11
Gradient: 193 = 2.36753e-10
Gradient: 194 = 7.46923e-11
Gradient: 195 = -2.02817e-10
Gradient: 196 = -2.62162e-10
Gradient: 197 = 2.90015e-10
Gradient: 198 = -5.94708e-10
Gradient: 199 = -1.298e-10
Gradient: 200 = 3.66e-12
Gradient: 201 = 5.55701e-10
Gradient: 202 = -1.21272e-10
Gradient: 203 = 4.06203e-10
Gradient: 204 = -1.736e-10
Gradient: 205 = 1.81217e-10
Gradient: 206 = -3.21847e-10
Gradient: 207 = 7.17875e-10
Gradient: 208 = 2.02177e-10
Gradient: 209 = 2.49785e-11
Gradient: 210 = -2.12026e-11
Gradient: 211 = -8.18374e-11
Gradient: 212 = 5.79803e-12
Gradient: 213 = -2.44427e-11
Gradient: 214 = -3.13321e-10
Gradient: 215 = 1.59332e-10
Gradient: 216 = -1.56894e-09
Gradient: 217 = -5.30102e-10
Gradient: 218 = -1.09501e-09
Gradient: 219 = 1.81845e-10
Gradient: 220 = -1.18454e-09
Gradient: 221 = -5.1871e-10
Gradient: 222 = -2.07586e-09
Gradient: 223 = -7.23086e-10
Gradient: 224 = -1.73812e-10
Gradient: 225 = -1.35389e-10
Gradient: 226 = -3.42074e-10
Gradient: 227 = -5.03481e-10
Gradient: 228 = 1.25701e-09
Gradient: 229 = 5.8782e-10
Gradient: 230 = 6.5344e-10
Gradient: 231 = -5.29487e-10
Gradient: 232 = -6.79741e-11
Gradient: 233 = 3.13361e-11
Gradient: 234 = 5.47286e-10
Gradient: 235 = -2.57602e-10
Gradient: 236 = 3.17854e-10
Gradient: 237 = 2.79679e-10
Gradient: 238 = -9.68631e-10
Gradient: 239 = 6.57829e-10
Gradient: 240 = -3.0083e-09
Gradient: 241 = -2.16719e-10
Gradient: 242 = 6.39214e-10
Gradient: 243 = -7.86809e-10
Gradient: 244 = 7.09342e-10
Gradient: 245 = -1.41979e-10
Gradient: 246 = 1.2208e-10
Gradient: 247 = -4.47648e-10
Gradient: 248 = -4.06559e-10
Gradient: 249 = 4.07033e-10
Gradient: 250 = 1.12782e-09
Gradient: 251 = 3.01606e-10
Gradient: 252 = 1.4603e-09
Gradient: 253 = -1.33132e-09
Gradient: 254 = 6.14589e-12
Gradient: 255 = -3.59351e-10
Gradient: 256 = -2.41362e-09
Gradient: 257 = 3.76892e-10
Gradient: 258 = 1.08982e-09
Gradient: 259 = 1.6947e-09
Gradient: 260 = -2.31577e-10
Gradient: 261 = 1.05026e-10
Gradient: 262 = 2.02893e-10
Gradient: 263 = 2.56763e-10
Gradient: 264 = -3.59707e-10
Gradient: 265 = -2.88232e-10
Gradient: 266 = 1.02645e-09
Gradient: 267 = 2.71162e-10
Gradient: 268 = -5.79964e-10
Gradient: 269 = -1.14535e-09
Gradient: 270 = -1.03225e-09
Gradient: 271 = 1.01253e-09
Gradient: 272 = -8.77561e-10
Gradient: 273 = -3.21287e-10
Gradient: 274 = -5.1994e-10
Gradient: 275 = -5.0868e-10
Gradient: 276 = 4.01569e-10
Gradient: 277 = 1.48439e-10
Gradient: 278 = -6.20125e-10
Gradient: 279 = 1.78266e-10
Gradient: 280 = -1.02263e-09
Gradient: 281 = 4.40276e-10
Gradient: 282 = -1.89234e-10
Gradient: 283 = -2.99419e-10
Gradient: 284 = 5.09893e-10
Gradient: 285 = -8.13446e-10
Gradient: 286 = 7.96043e-10
Gradient: 287 = -5.90783e-10
Gradient: 288 = 1.86901e-10
Gradient: 289 = -5.7916e-10
Gradient: 290 = -8.98694e-10
Gradient: 291 = -3.9995e-10
Gradient: 292 = 2.27374e-11
Gradient: 293 = -1.33582e-10
Gradient: 294 = -6.03076e-10
Gradient: 295 = -5.28644e-11
Gradient: 296 = 5.07043e-10
Gradient: 297 = 3.7079e-10
Gradient: 298 = 6.45173e-11
Gradient: 299 = -1.20849e-10
Gradient: 300 = -1.05388e-10
Gradient: 301 = -2.66076e-10
Gradient: 302 = -5.70481e-10
Gradient: 303 = 8.79936e-11
Gradient: 304 = 3.18323e-12
Gradient: 305 = -7.59428e-11
Gradient: 306 = 2.1368e-10
Gradient: 307 = 2.91038e-11
Gradient: 308 = -1.9935e-10
Gradient: 309 = -4.5759e-10
Gradient: 310 = 2.30841e-10
Gradient: 311 = 8.95852e-11
Gradient: 312 = 2.49656e-10
Gradient: 313 = 1.19254e-10
Gradient: 314 = 2.30557e-10
Gradient: 315 = 1.00101e-10
Gradient: 316 = 2.38913e-10
Gradient: 317 = 3.15026e-10
Gradient: 318 = -2.37804e-10
Gradient: 319 = 6.3585e-10
Gradient: 320 = -5.1557e-11
Gradient: 321 = 2.39879e-10
Gradient: 322 = -1.81331e-10
Gradient: 323 = -3.52429e-10
Gradient: 324 = 3.20256e-10
Gradient: 325 = -1.49282e-10
Gradient: 326 = 6.76437e-12
Gradient: 327 = -4.54861e-10
Gradient: 328 = 4.11092e-10
Gradient: 329 = 1.05729e-11
Gradient: 330 = -2.2348e-10
Gradient: 331 = -2.08161e-10
Gradient: 332 = 2.17597e-10
Gradient: 333 = -5.33646e-10
Gradient: 334 = 1.65358e-10
Gradient: 335 = -9.66338e-12
Gradient: 336 = 1.38698e-10
Gradient: 337 = 8.81073e-11
Gradient: 338 = 2.49979e-10
Gradient: 339 = 4.08136e-10
Gradient: 340 = -3.1207e-11
Gradient: 341 = -6.62794e-11
Gradient: 342 = -1.48589e-10
Gradient: 343 = -5.21652e-10
Gradient: 344 = -5.18751e-11
Gradient: 345 = 3.74541e-10
Gradient: 346 = -6.50402e-10
Gradient: 347 = 3.39639e-10
Gradient: 348 = -5.68434e-14
Gradient: 349 = -1.3074e-11
Gradient: 350 = -8.59831e-10
Gradient: 351 = -1.14255e-10
Gradient: 352 = -5.05509e-10
Gradient: 353 = -1.92415e-10
Gradient: 354 = -2.58638e-10
Gradient: 355 = 1.80762e-11
Gradient: 356 = -5.69955e-10
Gradient: 357 = -1.81444e-10
Gradient: 358 = 5.10454e-11
Gradient: 359 = 8.06835e-10
Gradient: 360 = -1.29148e-10
Gradient: 361 = -2.45791e-10
Gradient: 362 = -3.28049e-10
Gradient: 363 = -1.80989e-10
Gradient: 364 = -5.91854e-10
Gradient: 365 = -2.16119e-10
Gradient: 366 = -2.46359e-10
Gradient: 367 = -1.90596e-10
Gradient: 368 = -9.81655e-10
Gradient: 369 = 1.24533e-09
Gradient: 370 = 1.22327e-10
Gradient: 371 = 8.15476e-10
Gradient: 372 = 1.65642e-10
Gradient: 373 = -4.1257e-10
Gradient: 374 = -2.91008e-11
Gradient: 375 = 1.47793e-10
Gradient: 376 = -5.80997e-10
Gradient: 377 = -7.53175e-11
Gradient: 378 = 9.26548e-11
Gradient: 379 = 1.5217e-10
Gradient: 380 = -3.44145e-10
Gradient: 381 = -1.74907e-10
Gradient: 382 = 4.82032e-11
Gradient: 383 = 2.02476e-10
Gradient: 384 = 3.71897e-10
Gradient: 385 = 6.69786e-10
Gradient: 386 = -1.29614e-09
Gradient: 387 = 4.26326e-10
Gradient: 388 = -1.81444e-10
Gradient: 389 = -8.85962e-10
Gradient: 390 = -5.21821e-10
Gradient: 391 = -2.143e-11
Gradient: 392 = -2.08615e-10
Gradient: 393 = -7.70854e-10
Gradient: 394 = 1.07207e-10
Gradient: 395 = 4.04782e-10
Gradient: 396 = -9.30015e-10
Gradient: 397 = -1.94151e-10
Gradient: 398 = 4.86011e-10
Gradient: 399 = -5.2637e-11
Gradient: 400 = 5.69628e-10
Gradient: 401 = -5.07157e-10
Gradient: 402 = 2.47611e-10
Gradient: 403 = -4.92321e-10
Gradient: 404 = -2.82853e-10
Gradient: 405 = 7.21911e-11
Gradient: 406 = -3.46972e-10
Gradient: 407 = -2.73644e-10
Gradient: 408 = -5.37455e-10
Gradient: 409 = 4.12047e-10
Gradient: 410 = -6.22094e-10
Gradient: 411 = 1.59162e-11
Gradient: 412 = 2.83819e-10
Gradient: 413 = -2.3266e-10
Gradient: 414 = 5.86584e-10
Gradient: 415 = -4.63274e-11
Gradient: 416 = -5.03405e-10
Gradient: 417 = -4.46221e-10
Gradient: 418 = -1.39835e-10
Gradient: 419 = 1.01124e-09
Gradient: 420 = -7.51925e-10
Gradient: 421 = 1.21122e-10
Gradient: 422 = -2.15095e-10
Gradient: 423 = -5.16025e-10
Gradient: 424 = -4.03588e-11
Gradient: 425 = 6.50175e-10
Gradient: 426 = -9.89075e-12
Gradient: 427 = -4.51172e-10
Gradient: 428 = 1.83377e-10
Gradient: 429 = -2.05091e-10
Gradient: 430 = -4.26326e-12
Gradient: 431 = -1.15364e-09
Gradient: 432 = -3.80624e-10
Gradient: 433 = 2.88379e-10
Gradient: 434 = -2.0259e-10
Gradient: 435 = -2.78476e-10
Gradient: 436 = -7.32712e-11
Gradient: 437 = -1.09708e-10
Gradient: 438 = 1.8145e-10
Gradient: 439 = 1.96678e-10
Gradient: 440 = -6.74902e-10
Gradient: 441 = -4.0734e-10
Gradient: 442 = -1.83036e-11
Gradient: 443 = -4.36899e-10
Gradient: 444 = -2.93426e-10
Gradient: 445 = -6.09303e-10
Gradient: 446 = -3.67208e-11
Gradient: 447 = -8.93351e-10
Gradient: 448 = 1.1255e-09
Gradient: 449 = 2.67505e-10
Gradient: 450 = -1.65098e-10
Gradient: 451 = -2.47951e-10
Gradient: 452 = -4.93401e-10
Gradient: 453 = 2.34934e-10
Gradient: 454 = -4.89422e-11
Gradient: 455 = 9.17453e-11
Gradient: 456 = 2.39766e-10
Gradient: 457 = 1.99407e-10
Gradient: 458 = -2.57899e-10
Gradient: 459 = 7.50731e-10
Gradient: 460 = 6.61316e-10
Gradient: 461 = -2.59092e-10
Gradient: 462 = -3.89353e-10
Gradient: 463 = -1.59162e-10
Gradient: 464 = 5.52177e-10
Gradient: 465 = -4.26837e-10
Gradient: 466 = -4.56964e-10
Gradient: 467 = -7.20775e-11
Gradient: 468 = -4.82828e-10
Gradient: 469 = 5.86867e-11
Gradient: 470 = -1.93552e-10
Gradient: 471 = -5.63659e-10
Gradient: 472 = -1.49669e-10
Gradient: 473 = 2.21121e-10
Gradient: 474 = -9.75283e-10
Gradient: 475 = 1.8872e-11
Gradient: 476 = 4.60432e-12
Gradient: 477 = -3.55669e-10
Gradient: 478 = -6.55689e-10
Gradient: 479 = -9.89075e-12
Gradient: 480 = 6.84111e-10
Gradient: 481 = 6.38352e-10
Gradient: 482 = -1.42582e-10
Gradient: 483 = 1.05729e-11
Gradient: 484 = -1.83491e-10
Gradient: 485 = 5.13865e-11
Gradient: 486 = -6.14932e-10
Gradient: 487 = 5.10681e-10
Gradient: 488 = -7.65703e-10
Gradient: 489 = 1.16046e-09
Gradient: 490 = 1.18916e-10
Gradient: 491 = 4.48779e-10
Gradient: 492 = 1.01522e-09
Gradient: 493 = -9.72477e-10
Gradient: 494 = 8.56045e-10
Gradient: 495 = -6.63704e-10
Gradient: 496 = -7.57154e-10
Gradient: 497 = 5.25745e-10
Gradient: 498 = -2.10662e-10
Gradient: 499 = 9.08869e-10
Gradient: 500 = -3.24838e-10
Gradient: 501 = -7.87281e-11
Gradient: 502 = -4.10296e-10
Gradient: 503 = -8.97558e-11
Gradient: 504 = -9.41554e-10
Gradient: 505 = -1.63936e-10
Gradient: 506 = 8.24003e-11
Gradient: 507 = 9.21204e-10
Gradient: 508 = -1.54671e-10
Gradient: 509 = -8.77776e-10
Gradient: 510 = 1.10049e-10
Gradient: 511 = 6.06803e-10
Gradient: 512 = -2.50588e-10
Gradient: 513 = -1.32104e-10
Gradient: 514 = -2.3897e-10
Gradient: 515 = -7.73639e-11
Gradient: 516 = -8.99945e-10
Gradient: 517 = 9.69749e-10
Gradient: 518 = -1.15518e-09
Gradient: 519 = -4.8135e-10
Gradient: 520 = -6.12772e-11
Gradient: 521 = 3.88354e-10
Gradient: 522 = -2.05659e-10
Gradient: 523 = 7.31575e-10
Gradient: 524 = -2.99223e-10
Gradient: 525 = 6.08964e-10
Gradient: 526 = 3.19005e-10
Gradient: 527 = 1.33457e-09
Gradient: 528 = 2.70774e-11
Gradient: 529 = 4.46335e-10
Gradient: 530 = 3.46972e-10
Gradient: 531 = -3.8915e-10
Gradient: 532 = -2.80806e-10
Gradient: 533 = -2.30727e-10
Gradient: 534 = 4.74023e-10
Gradient: 535 = 4.65093e-10
Gradient: 536 = 4.02679e-10
Gradient: 537 = 8.22183e-10
Gradient: 538 = -7.376e-10
Gradient: 539 = 1.5541e-10
Gradient: 540 = 8.73115e-11
Gradient: 541 = 6.83541e-11
Gradient: 542 = 4.67708e-10
Gradient: 543 = -6.12886e-10
Gradient: 544 = -1.2102e-10
Gradient: 545 = 6.67512e-10
Gradient: 546 = 2.64751e-11
Gradient: 547 = 6.51482e-10
Gradient: 548 = 2.28511e-10
Gradient: 549 = 6.87805e-11
Gradient: 550 = -3.5709e-10
Gradient: 551 = -4.09045e-10
Gradient: 552 = -1.53932e-10
Gradient: 553 = 1.6887e-11
Gradient: 554 = 7.98877e-10
Gradient: 555 = -1.98497e-10
Gradient: 556 = -4.65661e-10
Gradient: 557 = -3.44016e-10
Gradient: 558 = -8.4589e-10
Gradient: 559 = -2.64777e-10
Gradient: 560 = 7.17364e-11
Gradient: 561 = 7.04802e-10
Gradient: 562 = -3.53793e-10
Gradient: 563 = 4.25814e-10
Gradient: 564 = -8.06608e-10
Gradient: 565 = -8.14701e-10
Gradient: 566 = -7.24185e-11
Gradient: 567 = 3.7403e-10
Gradient: 568 = -3.52657e-10
Gradient: 569 = 4.12115e-10
Gradient: 570 = 1.42393e-10
Gradient: 571 = 2.83599e-11
Gradient: 572 = 5.723e-10
Gradient: 573 = -2.70006e-10
Gradient: 574 = 2.40107e-10
Gradient: 575 = -2.76543e-10
Gradient: 576 = -7.27482e-10
Gradient: 577 = 6.01836e-10
Gradient: 578 = 1.29904e-09
Gradient: 579 = 6.36589e-10
Gradient: 580 = -4.19107e-10
Gradient: 581 = 8.34461e-10
Gradient: 582 = 7.3785e-10
Gradient: 583 = -1.96565e-10
Gradient: 584 = -8.86189e-10
Gradient: 585 = -7.77675e-10
Gradient: 586 = -2.56591e-10
Gradient: 587 = -3.18323e-11
Gradient: 588 = 3.36968e-10
Gradient: 589 = 5.72781e-10
Gradient: 590 = 9.75717e-10
Gradient: 591 = -2.77623e-10
Gradient: 592 = 7.31575e-11
Gradient: 593 = -1.01068e-10
Gradient: 594 = 3.75236e-10
Gradient: 595 = -3.29692e-11
Gradient: 596 = 5.54223e-11
Gradient: 597 = 6.45059e-10
Gradient: 598 = -4.4281e-10
Gradient: 599 = -1.72349e-10
Gradient: 600 = -8.37986e-10
Gradient: 601 = -3.95072e-10
Gradient: 602 = -2.70916e-10
Gradient: 603 = -2.01737e-10
Gradient: 604 = -7.13953e-10
Gradient: 605 = -5.50244e-10
Gradient: 606 = 5.63117e-10
Gradient: 607 = -1.25067e-09
Gradient: 608 = 3.56806e-10
Gradient: 609 = -7.19353e-10
Gradient: 610 = 2.66425e-10
Gradient: 611 = -4.04157e-10
Gradient: 612 = -3.5493e-10
Gradient: 613 = -9.76511e-10
Gradient: 614 = -1.91733e-10
Gradient: 615 = 1.96792e-10
Gradient: 616 = -9.24729e-10
Gradient: 617 = -1.14142e-10
Gradient: 618 = -5.03955e-10
Gradient: 619 = 5.4672e-10
Gradient: 620 = -6.7547e-10
Gradient: 621 = 4.9539e-10
Gradient: 622 = -2.07535e-10
Gradient: 623 = 4.66571e-10
Gradient: 624 = -4.45596e-10
Gradient: 625 = -5.43764e-10
Gradient: 626 = -2.60238e-10
Gradient: 627 = -3.93925e-10
Gradient: 628 = -3.01213e-10
Gradient: 629 = 5.73721e-10
Gradient: 630 = 1.55637e-10
Gradient: 631 = 4.71005e-10
Gradient: 632 = -2.90556e-10
Gradient: 633 = -1.57684e-10
Gradient: 634 = 5.82531e-10
Gradient: 635 = 4.55316e-11
Gradient: 636 = 3.75167e-12
Gradient: 637 = -8.86757e-11
Gradient: 638 = 2.53105e-10
Gradient: 639 = 9.82254e-11
Gradient: 640 = 6.13738e-10
Gradient: 641 = -1.89345e-10
Gradient: 642 = 6.36646e-11
Gradient: 643 = 8.48104e-11
Gradient: 644 = 1.31147e-10
Gradient: 645 = -1.18348e-10
Gradient: 646 = -3.688e-10
Gradient: 647 = -9.79071e-10
Gradient: 648 = -3.7727e-10
Gradient: 649 = -4.11546e-11
Gradient: 650 = 5.43166e-11
Gradient: 651 = -3.17527e-10
Gradient: 652 = 5.01018e-10
Gradient: 653 = 3.40719e-10
Gradient: 654 = 3.70051e-10
Gradient: 655 = 3.98188e-10
Gradient: 656 = 4.04712e-10
Gradient: 657 = -1.20536e-09
Gradient: 658 = -1.54614e-10
Gradient: 659 = -7.20888e-10
Gradient: 660 = 1.38186e-10
Gradient: 661 = 1.33127e-10
Gradient: 662 = -5.68486e-10
Gradient: 663 = -1.92699e-10
Gradient: 664 = 8.15874e-10
Gradient: 665 = 2.84103e-10
Gradient: 666 = 1.71667e-11
[...]
	Block[ 2]            0.00000 [K]
	Block[ 3]            0.00000 [K]
	Block[ 4]            0.00000 [K]
	------------------------------------------------------------------------------
	Average              0.00000 [K] +/-            0.00000 [K]

Average Adsorbate Bend-Bend cross term energy:
==============================================
	Block[ 0]            0.00000 [K]
	Block[ 1]            0.00000 [K]
	Block[ 2]            0.00000 [K]
	Block[ 3]            0.00000 [K]
	Block[ 4]            0.00000 [K]
	------------------------------------------------------------------------------
	Average              0.00000 [K] +/-            0.00000 [K]

Average Adsorbate Bond-Bend cross term energy:
=================================================
	Block[ 0]            0.00000 [K]
	Block[ 1]            0.00000 [K]
	Block[ 2]            0.00000 [K]
	Block[ 3]            0.00000 [K]
	Block[ 4]            0.00000 [K]
	------------------------------------------------------------------------------
	Average              0.00000 [K] +/-            0.00000 [K]

Average Adsorbate Bond-Torsion cross term energy:
=================================================
	Block[ 0]            0.00000 [K]
	Block[ 1]            0.00000 [K]
	Block[ 2]            0.00000 [K]
	Block[ 3]            0.00000 [K]
	Block[ 4]            0.00000 [K]
	------------------------------------------------------------------------------
	Average              0.00000 [K] +/-            0.00000 [K]

Average Adsorbate Bend-Torsion cross term energy:
=================================================
	Block[ 0]            0.00000 [K]
	Block[ 1]            0.00000 [K]
	Block[ 2]            0.00000 [K]
	Block[ 3]            0.00000 [K]
	Block[ 4]            0.00000 [K]
	------------------------------------------------------------------------------
	Average              0.00000 [K] +/-            0.00000 [K]

Average Adsorbate Intra Van der Waals energy:
=============================================
	Block[ 0]            0.00000 [K]
	Block[ 1]            0.00000 [K]
	Block[ 2]            0.00000 [K]
	Block[ 3]            0.00000 [K]
	Block[ 4]            0.00000 [K]
	------------------------------------------------------------------------------
	Average              0.00000 [K] +/-            0.00000 [K]

Average Adsorbate Intra charge-charge Coulomb energy:
=======================================
	Block[ 0]            0.00000 [K]
	Block[ 1]            0.00000 [K]
	Block[ 2]            0.00000 [K]
	Block[ 3]            0.00000 [K]
	Block[ 4]            0.00000 [K]
	------------------------------------------------------------------------------
	Average              0.00000 [K] +/-            0.00000 [K]

Average Adsorbate Intra charge-bonddipole Coulomb energy:
=======================================
	Block[ 0]            0.00000 [K]
	Block[ 1]            0.00000 [K]
	Block[ 2]            0.00000 [K]
	Block[ 3]            0.00000 [K]
	Block[ 4]            0.00000 [K]
	------------------------------------------------------------------------------
	Average              0.00000 [K] +/-            0.00000 [K]

Average Adsorbate Intra bonddipole-bonddipole Coulomb energy:
=======================================
	Block[ 0]            0.00000 [K]
	Block[ 1]            0.00000 [K]
	Block[ 2]            0.00000 [K]
	Block[ 3]            0.00000 [K]
	Block[ 4]            0.00000 [K]
	------------------------------------------------------------------------------
	Average              0.00000 [K] +/-            0.00000 [K]

Average Cation Bond stretch energy:
=================================
	Block[ 0]            0.00000 [K]
	Block[ 1]            0.00000 [K]
	Block[ 2]            0.00000 [K]
	Block[ 3]            0.00000 [K]
	Block[ 4]            0.00000 [K]
	------------------------------------------------------------------------------
	Average              0.00000 [K] +/-            0.00000 [K]

Average Cation UreyBradley stretch energy:
==========================================
	Block[ 0]            0.00000 [K]
	Block[ 1]            0.00000 [K]
	Block[ 2]            0.00000 [K]
	Block[ 3]            0.00000 [K]
	Block[ 4]            0.00000 [K]
	------------------------------------------------------------------------------
	Average              0.00000 [K] +/-            0.00000 [K]

Average Cation Bend angle energy:
=================================
	Block[ 0]            0.00000 [K]
	Block[ 1]            0.00000 [K]
	Block[ 2]            0.00000 [K]
	Block[ 3]            0.00000 [K]
	Block[ 4]            0.00000 [K]
	------------------------------------------------------------------------------
	Average              0.00000 [K] +/-            0.00000 [K]

Average Cation Bend angle inversion energy:
===========================================
	Block[ 0]            0.00000 [K]
	Block[ 1]            0.00000 [K]
	Block[ 2]            0.00000 [K]
	Block[ 3]            0.00000 [K]
	Block[ 4]            0.00000 [K]
	------------------------------------------------------------------------------
	Average              0.00000 [K] +/-            0.00000 [K]

Average Cation Torsion energy:
==============================
	Block[ 0]            0.00000 [K]
	Block[ 1]            0.00000 [K]
	Block[ 2]            0.00000 [K]
	Block[ 3]            0.00000 [K]
	Block[ 4]            0.00000 [K]
	------------------------------------------------------------------------------
	Average              0.00000 [K] +/-            0.00000 [K]

Average Cation Improper Torsion energy:
=======================================
	Block[ 0]            0.00000 [K]
	Block[ 1]            0.00000 [K]
	Block[ 2]            0.00000 [K]
	Block[ 3]            0.00000 [K]
	Block[ 4]            0.00000 [K]
	------------------------------------------------------------------------------
	Average              0.00000 [K] +/-            0.00000 [K]

Average Cation Bond-Bond cross term energy:
=================================================
	Block[ 0]            0.00000 [K]
	Block[ 1]            0.00000 [K]
	Block[ 2]            0.00000 [K]
	Block[ 3]            0.00000 [K]
	Block[ 4]            0.00000 [K]
	------------------------------------------------------------------------------
	Average              0.00000 [K] +/-            0.00000 [K]

Average Cation Bend-Bend cross term energy:
===========================================
	Block[ 0]            0.00000 [K]
	Block[ 1]            0.00000 [K]
	Block[ 2]            0.00000 [K]
	Block[ 3]            0.00000 [K]
	Block[ 4]            0.00000 [K]
	------------------------------------------------------------------------------
	Average              0.00000 [K] +/-            0.00000 [K]

Average Cation Bond-Bend cross term energy:
==============================================
	Block[ 0]            0.00000 [K]
	Block[ 1]            0.00000 [K]
	Block[ 2]            0.00000 [K]
	Block[ 3]            0.00000 [K]
	Block[ 4]            0.00000 [K]
	------------------------------------------------------------------------------
	Average              0.00000 [K] +/-            0.00000 [K]

Average Cation Bond-Torsion cross term energy:
==============================================
	Block[ 0]            0.00000 [K]
	Block[ 1]            0.00000 [K]
	Block[ 2]            0.00000 [K]
	Block[ 3]            0.00000 [K]
	Block[ 4]            0.00000 [K]
	------------------------------------------------------------------------------
	Average              0.00000 [K] +/-            0.00000 [K]

Average Cation Bend-Torsion cross term energy:
==============================================
	Block[ 0]            0.00000 [K]
	Block[ 1]            0.00000 [K]
	Block[ 2]            0.00000 [K]
	Block[ 3]            0.00000 [K]
	Block[ 4]            0.00000 [K]
	------------------------------------------------------------------------------
	Average              0.00000 [K] +/-            0.00000 [K]

Average Cation Intra Van der Waals energy:
==========================================
	Block[ 0]            0.00000 [K]
	Block[ 1]            0.00000 [K]
	Block[ 2]            0.00000 [K]
	Block[ 3]            0.00000 [K]
	Block[ 4]            0.00000 [K]
	------------------------------------------------------------------------------
	Average              0.00000 [K] +/-            0.00000 [K]

Average Cation Intra charge-charge Coulomb energy:
====================================
	Block[ 0]            0.00000 [K]
	Block[ 1]            0.00000 [K]
	Block[ 2]            0.00000 [K]
	Block[ 3]            0.00000 [K]
	Block[ 4]            0.00000 [K]
	------------------------------------------------------------------------------
	Average              0.00000 [K] +/-            0.00000 [K]

Average Cation Intra charge-bonddipole Coulomb energy:
====================================
	Block[ 0]            0.00000 [K]
	Block[ 1]            0.00000 [K]
	Block[ 2]            0.00000 [K]
	Block[ 3]            0.00000 [K]
	Block[ 4]            0.00000 [K]
	------------------------------------------------------------------------------
	Average              0.00000 [K] +/-            0.00000 [K]

Average Cation Intra bonddipole-bonddipole Coulomb energy:
====================================
	Block[ 0]            0.00000 [K]
	Block[ 1]            0.00000 [K]
	Block[ 2]            0.00000 [K]
	Block[ 3]            0.00000 [K]
	Block[ 4]            0.00000 [K]
	------------------------------------------------------------------------------
	Average              0.00000 [K] +/-            0.00000 [K]

Average Host-Host energy:
=========================
	Block[ 0] 0.00000            Van der Waals: 0.00000            Coulomb: 0.00000            [K]
	Block[ 1] 0.00000            Van der Waals: 0.00000            Coulomb: 0.00000            [K]
	Block[ 2] 0.00000            Van der Waals: 0.00000            Coulomb: 0.00000            [K]
	Block[ 3] 0.00000            Van der Waals: 0.00000            Coulomb: 0.00000            [K]
	Block[ 4] 0.00000            Van der Waals: 0.00000            Coulomb: 0.00000            [K]
	------------------------------------------------------------------------------
	Average   0.00000            Van der Waals: 0.000000           Coulomb: 0.00000            [K]
	      +/- 0.00000                       +/- 0.000000                +/- 0.00000            [K]

Average Adsorbate-Adsorbate energy:
===================================
	Block[ 0] 0.00000            Van der Waals: 0.00000            Coulomb: 0.00000            [K]
	Block[ 1] 0.00000            Van der Waals: 0.00000            Coulomb: 0.00000            [K]
	Block[ 2] 0.00000            Van der Waals: 0.00000            Coulomb: 0.00000            [K]
	Block[ 3] 0.00000            Van der Waals: 0.00000            Coulomb: 0.00000            [K]
	Block[ 4] 0.00000            Van der Waals: 0.00000            Coulomb: 0.00000            [K]
	------------------------------------------------------------------------------
	Average   0.00000            Van der Waals: 0.000000           Coulomb: 0.00000            [K]
	      +/- 0.00000                       +/- 0.000000                +/- 0.00000            [K]

Average Cation-Cation energy:
=============================
	Block[ 0] 0.00000            Van der Waals: 0.00000            Coulomb: 0.00000            [K]
	Block[ 1] 0.00000            Van der Waals: 0.00000            Coulomb: 0.00000            [K]
	Block[ 2] 0.00000            Van der Waals: 0.00000            Coulomb: 0.00000            [K]
	Block[ 3] 0.00000            Van der Waals: 0.00000            Coulomb: 0.00000            [K]
	Block[ 4] 0.00000            Van der Waals: 0.00000            Coulomb: 0.00000            [K]
	------------------------------------------------------------------------------
	Average   0.00000            Van der Waals: 0.000000           Coulomb: 0.00000            [K]
	      +/- 0.00000                       +/- 0.000000                +/- 0.00000            [K]

Average Host-Adsorbate energy:
==============================
	Block[ 0] 0.00000            Van der Waals: 0.00000            Coulomb: 0.00000            [K]
	Block[ 1] 0.00000            Van der Waals: 0.00000            Coulomb: 0.00000            [K]
	Block[ 2] 0.00000            Van der Waals: 0.00000            Coulomb: 0.00000            [K]
	Block[ 3] 0.00000            Van der Waals: 0.00000            Coulomb: 0.00000            [K]
	Block[ 4] 0.00000            Van der Waals: 0.00000            Coulomb: 0.00000            [K]
	------------------------------------------------------------------------------
	Average   0.00000            Van der Waals: 0.000000           Coulomb: 0.00000            [K]
	      +/- 0.00000                       +/- 0.000000                +/- 0.00000            [K]

Average Host-Cation energy:
===========================
	Block[ 0] 0.00000            Van der Waals: 0.00000            Coulomb: 0.00000            [K]
	Block[ 1] 0.00000            Van der Waals: 0.00000            Coulomb: 0.00000            [K]
	Block[ 2] 0.00000            Van der Waals: 0.00000            Coulomb: 0.00000            [K]
	Block[ 3] 0.00000            Van der Waals: 0.00000            Coulomb: 0.00000            [K]
	Block[ 4] 0.00000            Van der Waals: 0.00000            Coulomb: 0.00000            [K]
	------------------------------------------------------------------------------
	Average   0.00000            Van der Waals: 0.000000           Coulomb: 0.00000            [K]
	      +/- 0.00000                       +/- 0.000000                +/- 0.00000            [K]

Average Adsorbate-Cation energy:
================================
	Block[ 0] 0.00000            Van der Waals: 0.00000            Coulomb: 0.00000            [K]
	Block[ 1] 0.00000            Van der Waals: 0.00000            Coulomb: 0.00000            [K]
	Block[ 2] 0.00000            Van der Waals: 0.00000            Coulomb: 0.00000            [K]
	Block[ 3] 0.00000            Van der Waals: 0.00000            Coulomb: 0.00000            [K]
	Block[ 4] 0.00000            Van der Waals: 0.00000            Coulomb: 0.00000            [K]
	------------------------------------------------------------------------------
	Average   0.00000            Van der Waals: 0.000000           Coulomb: 0.00000            [K]
	      +/- 0.00000                       +/- 0.000000                +/- 0.00000            [K]

Host polarization energy:
=======================
	Block[ 0]            0.00000 [K]
	Block[ 1]            0.00000 [K]
	Block[ 2]            0.00000 [K]
	Block[ 3]            0.00000 [K]
	Block[ 4]            0.00000 [K]
	------------------------------------------------------------------------------
	Average              0.00000 [K] +/-            0.00000 [K]

Adsorbate polarization energy:
=======================
	Block[ 0]            0.00000 [K]
	Block[ 1]            0.00000 [K]
	Block[ 2]            0.00000 [K]
	Block[ 3]            0.00000 [K]
	Block[ 4]            0.00000 [K]
	------------------------------------------------------------------------------
	Average              0.00000 [K] +/-            0.00000 [K]

Cation polarization energy:
=======================
	Block[ 0]            0.00000 [K]
	Block[ 1]            0.00000 [K]
	Block[ 2]            0.00000 [K]
	Block[ 3]            0.00000 [K]
	Block[ 4]            0.00000 [K]
	------------------------------------------------------------------------------
	Average              0.00000 [K] +/-            0.00000 [K]

Host back-polarization energy:
=======================
	Block[ 0]            0.00000 [K]
	Block[ 1]            0.00000 [K]
	Block[ 2]            0.00000 [K]
	Block[ 3]            0.00000 [K]
	Block[ 4]            0.00000 [K]
	------------------------------------------------------------------------------
	Average              0.00000 [K] +/-            0.00000 [K]

Adsorbate back-polarization energy:
=======================
	Block[ 0]            0.00000 [K]
	Block[ 1]            0.00000 [K]
	Block[ 2]            0.00000 [K]
	Block[ 3]            0.00000 [K]
	Block[ 4]            0.00000 [K]
	------------------------------------------------------------------------------
	Average              0.00000 [K] +/-            0.00000 [K]

Cation back-polarization energy:
=======================
	Block[ 0]            0.00000 [K]
	Block[ 1]            0.00000 [K]
	Block[ 2]            0.00000 [K]
	Block[ 3]            0.00000 [K]
	Block[ 4]            0.00000 [K]
	------------------------------------------------------------------------------
	Average              0.00000 [K] +/-            0.00000 [K]

Tail-correction energy:
=======================
	Block[ 0]            0.00000 [K]
	Block[ 1]            0.00000 [K]
	Block[ 2]            0.00000 [K]
	Block[ 3]            0.00000 [K]
	Block[ 4]            0.00000 [K]
	------------------------------------------------------------------------------
	Average              0.00000 [K] +/-            0.00000 [K]

Distance-constraints energy:
=======================
	Block[ 0]            0.00000 [K]
	Block[ 1]            0.00000 [K]
	Block[ 2]            0.00000 [K]
	Block[ 3]            0.00000 [K]
	Block[ 4]            0.00000 [K]
	------------------------------------------------------------------------------
	Average              0.00000 [K] +/-            0.00000 [K]

Angle-constraints energy:
=======================
	Block[ 0]            0.00000 [K]
	Block[ 1]            0.00000 [K]
	Block[ 2]            0.00000 [K]
	Block[ 3]            0.00000 [K]
	Block[ 4]            0.00000 [K]
	------------------------------------------------------------------------------
	Average              0.00000 [K] +/-            0.00000 [K]

Dihedral-constraints energy:
=======================
	Block[ 0]            0.00000 [K]
	Block[ 1]            0.00000 [K]
	Block[ 2]            0.00000 [K]
	Block[ 3]            0.00000 [K]
	Block[ 4]            0.00000 [K]
	------------------------------------------------------------------------------
	Average              0.00000 [K] +/-            0.00000 [K]

Inversion-bend constraints energy:
=======================
	Block[ 0]            0.00000 [K]
	Block[ 1]            0.00000 [K]
	Block[ 2]            0.00000 [K]
	Block[ 3]            0.00000 [K]
	Block[ 4]            0.00000 [K]
	------------------------------------------------------------------------------
	Average              0.00000 [K] +/-            0.00000 [K]

Out-of-plane-distance constraints energy:
=======================
	Block[ 0]            0.00000 [K]
	Block[ 1]            0.00000 [K]
	Block[ 2]            0.00000 [K]
	Block[ 3]            0.00000 [K]
	Block[ 4]            0.00000 [K]
	------------------------------------------------------------------------------
	Average              0.00000 [K] +/-            0.00000 [K]

Exclusion-constraints energy:
=======================
	Block[ 0]            0.00000 [K]
	Block[ 1]            0.00000 [K]
	Block[ 2]            0.00000 [K]
	Block[ 3]            0.00000 [K]
	Block[ 4]            0.00000 [K]
	------------------------------------------------------------------------------
	Average              0.00000 [K] +/-            0.00000 [K]

Total energy:
=============
	Block[ 0]            0.00000 [K]
	Block[ 1]            0.00000 [K]
	Block[ 2]            0.00000 [K]
	Block[ 3]            0.00000 [K]
	Block[ 4]            0.00000 [K]
	------------------------------------------------------------------------------
	Average              0.00000 [K] +/-            0.00000 [K]

Number of molecules:
====================


Average Widom Rosenbluth factor:
================================

Average Henry coefficient:
==========================

Average adsorption energy <U_gh>_1-<U_h>_0 obtained from Widom-insertion:
(Note: the total heat of adsorption is dH=<U_gh>_1-<U_h>_0 - <U_g> - RT)
=========================================================================

Simulation finished,  1 warnings

Thu Apr 18 12:17:18 2013
Simulation finished on Thursday, April 18.
The end time was 12:17 PM.

