Compiler and run-time data
===========================================================================
RASPA 2.0.45
Compiled as a 64-bits application
Compiler: gcc Apple LLVM 12.0.5 (clang-1205.0.22.9)
Compile Date = May 18 2021, Compile Time = 12:54:12

Tue May 18 14:32:17 2021
Simulation started on Tuesday, May 18.
The start time was 02:32 PM.

Cpu data:    x86_64
Cpu Model:   MacPro7,1
Host name:   MacPro.local
OS release:  20.4.0
OS type:     Darwin
OS version:  20E232


Simulation
===========================================================================
Dimensions: 3
Random number seed: 1621341137
RASPA directory set to: /Users/dubbelda/RASPA/simulations/
String appended to output-files: 
Number of cycles: 100000
Number of initializing cycles: 0
Number of equilibration cycles: 10000
Print every: 5000
Rectangular boundary condition applied
Timestep: 0.001000
Initialization Ensemble: NPT (constant number of particles N, constant average pressure P, constant average temperature T)
Production run ensemble: NPT (constant number of particles N, constant average pressure P, constant average temperature T)
	Degrees of freedom:                        3072
	Translational Degrees of freedom:          1536
	Rotational Degrees of freedom:             1536
	Degrees of freedom Framework:              0


Mutual consistent basic set of units:
======================================
Unit of temperature: Kelvin
Unit of length:      1e-10 [m]
Unit of time:        1e-12 [s]
Unit of mass:        1.66054e-27 [kg]
Unit of charge:      1.60218e-19 [C/particle]

Derived units and their conversion factors:
===========================================
Unit of energy:              1.66054e-23 [J]
Unit of force:               1.66054e-13 [N]
Unit of pressure:            1.66054e+07 [Pa]
Unit of velocity:            100 [m/s]
Unit of acceleration:        1e-08 [m^2/s]
Unit of diffusion:           1e-08 [m^2/s]
Unit of dipole moment:       1.60218e-29 [C.m]
Unit of electric potential:  0.000103643 [V]
Unit of electric field:      1.03643e+06 [V]
Unit of polarizability:      1.54587e-35 [-]
Unit of Coulomb potential:   167101.0800066561  [K]
Unit of dielectric constant: 0.0000154587       [s^2 C^2/(kg m^3)]
Unit of wave vectors:        5.3088374589       [cm^1]
Boltzmann constant:          0.8314464919       [-]

Internal conversion factors:
===========================================
Energy to Kelvin:                                    1.2027242847
FH correction factor                                 2.0211930949
Heat capacity conversion factor:                    10.0000088723
From Debye to internal units:                        4.8032067991
Isothermal compressibility conversion factor:        0.0000000602

Energy conversion factors:
===========================================
From mdyne/A to kcal/mol/A^2:           143.933
From mdyne/A to kj/mol/A^2:             602.214
From mdyne/A to K/A^2:                  72429.7
From mdyne A/rad^2 to kcal/mol/deg^2:   0.0438444


Properties computed
===========================================================================
Movies: no
Radial Distribution Function: no
Number of molecules GCMC histogram: no
Histogram of the molecule positions: no
Free energy profiles: no
Pore Size Distribution Function: no
End-to-end distance: no
Histogram of the energy of the system: no
Compute thermodynamic factors: no
Framework spacing histograms: no
Residence times histograms: no
Distance histograms: no
Bend Angle histograms: no
Dihedral angle histograms: no
Angle between planes histograms: no
Molecule properties: no
Infra-red spectra: no
Mean-squared displacement using modified order-N algorithm: yes
	msd is sampled every 1 cycles
	msd is written to file every 5000 cycles
	the (initial) maximum number of blocks: 25
	the number of elements per block: 25
	the msd's are computed per component
Velocity-autocorrelation function modified order-N algorithm: no
Rotational velocity-autocorrelation function modified order-N algorithm: no
Molecular orientation-autocorrelation function modified order-N algorithm: no
Bond orientation-autocorrelation function modified order-N algorithm: no
Mean-squared displacement (conventional algorithm): no
Velocity-autocorrelation function (conventional algorithm): no
3D density grid for adsorbates: no
Compute cation an/or adsorption sites: no
dcTST snapshots: no
Compute pressure and stress: no


VTK
===========================================================================
VTK fractional-range position framework atoms: [-0.001000,1.001000] [-0.001000,1.001000] [-0.001000,1.001000]
VTK fractional-range position framework bonds: [-0.151000,1.151000] [-0.151000,1.151000] [-0.151000,1.151000]
VTK fractional-range com-position adsorbate molecules: [-0.101000,1.101000] [-0.101000,1.101000] [-0.101000,1.101000]
VTK fractional-range com-position cation molecules: [-0.101000,1.101000] [-0.101000,1.101000] [-0.101000,1.101000]
	3D free energy grid made for the full simulation-cell


Thermo/Baro-stat NHC parameters
===========================================================================
External temperature: 300 [K]
Beta: 0.00400908 [energy unit]
External Pressure: 100000 [Pa]


Thermostat chain-length: 3
Timescale parameter for thermostat: 0.150000 [ps]
Barostat chain-length:   3
Timescale parameter for barostat:   0.150000 [ps]

Number of Yoshida-Suzuki decomposition steps: 5
Number of respa steps: 5


Method and settings for electrostatics
===============================================================================
Dielectric constant of the medium : 1.000000
Charge from charge-equilibration: no
Ewald summation is used (exact solution of a periodic system)
Relative precision                : 1e-06
Alpha convergence parameter       : 0.265058
kvec (x,y,z)                      : 7 7 7


CFC-RXMC parameters
===========================================================================
Number of reactions: 0


Rattle parameters
===========================================================================
Distance constraint type: r^2-r^2_0
Bend angle constraint type: theta-theta_0
Dihedral angle constraint type: phi-phi_0
Inversion-bend angle constraint type: chi-chi_0
Out-of-plane distance constraint type: r-r_0


Spectra parameters
===========================================================================
Compute normal modes: no


Minimization parameters
===========================================================================
Generalized coordinates are: Cartesian center-of-mass, elements of the orientational matrix p1,p2,p3 and strain
Potential derivatives are evaluated: analytically
Translation of the system is removed from the generalized Hessian: no
Rotation of the system is removed from the generalized Hessian: no
Maximum step-length: 0.3
Convergence factor: 1
Maximum number of minimization steps: 10000
Use gradients in the line-minimizations: yes
RMS gradient tolerance: 1e-06
Maximum gradient tolerance: 1e-06

Distance constraints: 0
Angle constraints: 0
Dihedral constraints: 0

Improper dihedral constraints: 0

Inversion-bend constraints: 0

Out-of-plane constraints: 0

Harmonic distance constraints: 0
Harmonic angle constraints: 0
Harmonic dihedral constraints: 0

Dihedral mid-point measurements: 0

All framework atoms are fixed

Fixed adsorbate atoms:  
Fixed adsorbate groups (center-of-mass):  
Fixed adsorbate groups (orientation):  

Fixed cation atoms:  
Fixed cation groups (center-of-mass):  
Fixed cation groups (orientation):  


dcTST parameters
===========================================================================
Free energy profiles computed: no
Free energy profiles written every 5000 cycles
Free energy mapping: mapped to a,b,c-coordinates
BarrierPosition:       0.0000000000       0.0000000000       0.0000000000
BarrierNormal:         0.0000000000       0.0000000000       0.0000000000
Start with a molecule on top of the barrier: no
Maximum distance to barrier (e.g. distance to minumum free energy):       0.0000000000 [A]
Maximum trajectory time:      10.0000000000 [ps]
Each configuration is used with 5 different initial velocities


Cbmc parameters
===========================================================================
Biasing method: using only the VDW part
Number of trial positions:                                       10
Number of trial positions (reinsertion):                         10
Number of trial positions (partial reinsertion):                 10
Number of trial positions (identity-change):                     10
Number of trial positions (Gibbs particle transfer):             10
Number of trial positions (insertion/deletion):                  10
Number of trial positions (Widom insertion):                     10
Number of trial positions coupled Torsion-selection:             100
Number of trial positions first bead:                            10
Number of trial positions first bead (reinsertion):              10
Number of trial positions first bead (partial reinsertion):      10
Number of trial positions first bead (identity-change):          10
Number of trial positions first bead (Gibbs particle transfer):  10
Number of trial positions first bead (insertion/deletion):       10
Number of trial positions first bead (Widom insertion):          10
Number of trial moves per open bead:                             150
Target acceptance ratio small-mc scheme:                         0.400000
Energy overlap criteria:                                         1e+07
Minimal Rosenbluth factor:                                       1e-150


Pseudo atoms: 4
===========================================================================
Pseudo Atom[   0] Name UNIT     Oxidation:          Element: H    pdb-name: H    Scat. Types:   1   1 Mass=1.000000000  B-factor:0.000   
                 Charge=1.000000000          Polarization=0.000000000  [A^3] (considered a charged atom and no polarization)  Interactions: yes
                 Anisotropic factor:    0.000 [-] (Absolute), Radius:    1.000 [A], Framework-atom:  no
Pseudo Atom[   1] Name Ow       Oxidation: +0       Element: O    pdb-name: O    Scat. Types:   9   8 Mass=15.999600000 B-factor:1.000   
                 Charge=0.000000000          Polarization=0.000000000  [A^3] (considered a chargeless atom and no polarization)  Interactions: yes
                 Anisotropic factor:    0.000 [-] (Absolute), Radius:    0.500 [A], Framework-atom:  no
Pseudo Atom[   2] Name Hw       Oxidation: +0       Element: H    pdb-name: H    Scat. Types:   1   1 Mass=1.000800000  B-factor:1.000   
                 Charge=0.241000000          Polarization=0.000000000  [A^3] (considered a charged atom and no polarization)  Interactions: yes
                 Anisotropic factor:    0.000 [-] (Absolute), Radius:    1.000 [A], Framework-atom:  no
Pseudo Atom[   3] Name Lw       Oxidation: +0       Element: -    pdb-name: L    Scat. Types:   0   3 Mass=0.000000000  B-factor:1.000   
                 Charge=-0.241000000         Polarization=0.000000000  [A^3] (considered a charged atom and no polarization)  Interactions: yes
                 Anisotropic factor:    0.000 [-] (Absolute), Radius:    1.000 [A], Framework-atom:  no


Forcefield: Local
===========================================================================
Minimal distance: 1
CutOff VDW : 10.000000 (100.000000)
CutOff VDW switching on: 9.000000 (81.000000)
CutOff charge-charge : 12.000000 (144.000000)
CutOff charge-charge switching on: 7.800000 (60.840000)
CutOff charge-bonddipole : 12.000000 (144.000000)
CutOff charge-bondipole switching on: 8.400000 (70.560000)
CutOff bonddipole-bonddipole : 12.000000 (144.000000)
CutOff bonddipole-bondipole switching on: 9.000000 (81.000000)
Polarization is neglected
All potentials are shifted to zero at the Cutoff

General mixing rule: Jorgensen mixing rules are used FIRST for cross terms
0 cross terms are overwritten using the individual mixing rules from the file 'force_field_mixing_rules.def'
and then 0 terms are overwritten using the specific interactions from the file 'force_field.def'

The force field and all the interactions:
     Ow -      Ow [LENNARD_JONES] p_0/k_B:  89.63300 [K], p_1: 3.09700 [A], shift/k_B:  -0.31607619 [K], tailcorrection: no
     Ow -      Hw [ZERO_POTENTIAL]
     Ow -      Lw [ZERO_POTENTIAL]
     Hw -      Hw [ZERO_POTENTIAL]
     Hw -      Lw [ZERO_POTENTIAL]
     Lw -      Lw [ZERO_POTENTIAL]


MoleculeDefinitions:
===========================================================================
Component 0 [Tip5p] (Adsorbate molecule)

	MoleculeDefinitions: Local
	Component contains (at least some) atoms which are charged
	Component contains no atoms with point dipoles (polarization)
	Component has a net charge of 0.000000

	Ideal chain Rosenbluth weight: 1
	Ideal chain total energy: 0.000000

	Critical temparure [K]: 304.128200
	Critical pressure [Pa]: 7377300.000000
	Acentric factor [-]: 0.223940

	RXMC partition factor ln(q/V) [ln(A^(-3))]:       0.0000000000

	Vapour=stable, Liquid=metastable

	MolFraction:           1.0000000000 [-]
	Compressibility:       0.0000000000 [-]

	Density of the bulk fluid phase:       0.0000000000 [kg/m^3]


	Amount of excess molecules:       0.0000000000 [-]

	Conversion factor molecules/unit cell -> mol/kg:                inf [-]
	Conversion factor molecules/unit cell -> mg/g:                inf [-]
	Conversion factor molecules/unit cell -> cm^3 STP/gr:                inf [-]
	Conversion factor molecules/unit cell -> cm^3 STP/cm^3:       2.3837329768 [-]
	Conversion factor mol/kg -> cm^3 STP/gr:      22.4139757476 [-]
	Conversion factor mol/kg -> cm^3 STP/cm^3:       0.0000000000 [-]

	Partial pressure: -16605402.00000000000000 [Pa]
	                    -124540.51499999999942 [Torr]
	                       -166.05402000000001 [bar]
	                       -163.88257586972614 [atm]

	Fugacity coefficient:      -1.0000000000 [-]

	Partial fugacity:  16605402.00000000000000 [Pa]
	                     124540.51499999999942 [Torr]
	                        166.05402000000001 [bar]
	                        163.88257586972614 [atm]

	Molecule contains 5 number of atoms
		atom:    0  is of type:    1 [        Ow] (group: 0)
		atom:    1  is of type:    2 [        Hw] (group: 0)
		atom:    2  is of type:    2 [        Hw] (group: 0)
		atom:    3  is of type:    3 [        Lw] (group: 0)
		atom:    4  is of type:    3 [        Lw] (group: 0)

	Molecule contains 0 chirality centers

	Molecule contains 1 number of groups

		group: 0 containing: 5 elements
		-------------------------------------------------
		the group is rigid and nonlinear
		Mass: 18.001200 [a.u.]
		Mass: 1.914434 [kg/m^3]

		Rotational Degrees of freedom: 3
		Diagonalized inertia vector:       1.7575330830
		                                   1.1468643540
		                                   0.6106687291
		number of atoms: 5
			element: 0 atom: 0 [        Ow] Charge:  0.000000 Anisotropy: 0.000000 Position:  0.000000  0.065146  0.000000 Connectivity: 4 (1 2 3 4 )
			element: 1 atom: 1 [        Hw] Charge:  0.241000 Anisotropy: 0.000000 Position:  0.000000 -0.520737 -0.756950 Connectivity: 1 (0 )
			element: 2 atom: 2 [        Hw] Charge:  0.241000 Anisotropy: 0.000000 Position:  0.000000 -0.520737  0.756950 Connectivity: 1 (0 )
			element: 3 atom: 3 [        Lw] Charge: -0.241000 Anisotropy: 0.000000 Position: -0.571543  0.469297  0.000000 Connectivity: 1 (0 )
			element: 4 atom: 4 [        Lw] Charge: -0.241000 Anisotropy: 0.000000 Position:  0.571543  0.469297  0.000000 Connectivity: 1 (0 )
		number of permanent dipoles: 0
		number of polarizabilities: 0

		Dipole:           2.2920719009 [D]
		Quadrupole:      -1.4784799135      -0.1672211827       1.6457010962 [D Angstrom]
		Quadrupole tensor [D Angstrom]
				      -1.4784799135       0.0000000000       0.0000000000
				       0.0000000000      -0.1672211827       0.0000000000
				       0.0000000000       0.0000000000       1.6457010962

	Starting bead for growth               : 0

	Degrees of freedom                     : 0
	Translational degrees of freedom       : 0
	Rotational degrees of freedom          : 0
	Vibrational degrees of freedom         : 0
	Constraint degrees of freedom          : 0

	Number of atoms                        : 5

	Number of constraint bonds             : 0
	Number of constraint bends             : 0
	Number of constraint inversion bends   : 0
	Number of constraint torsions          : 0
	Number of constraint improper torsions : 0
	Number of constraint improper torsions : 0

	Number of bonds                        : 4
	Number of Urey-Bradleys                : 0
	Number of bends                        : 0
	Number of inversion bends              : 0
	Number of torsions                     : 0
	Number of improper torsions            : 0
	Number of improper torsions            : 0

	Number of bond/bond cross terms        : 0
	Number of bond/bend cross terms        : 0
	Number of bend/bend cross terms        : 0
	Number of stretch/torsion cross terms  : 0
	Number of bend/torsion cross terms     : 0

	Number of charges                      : 4
	Number of bond-dipoles                 : 0

	Number of intra Van der Waals                             : 0
	Number of intra charge-charge Coulomb                     : 0
	Number of intra charge-bonddipole Coulomb                 : 0
	Number of intra bonddipole-bonddipole Coulomb             : 0

	Number of excluded intra charge-charge Coulomb                     : 6
	Number of excluded intra charge-bonddipole Coulomb                 : 0
	Number of excluded intra bonddipole-bonddipole Coulomb             : 0

	Number of cbmc-config moves                               : 0

	Particle Moves:             
		ProbabilityTranslationMove:                  33.333333
			TranslationDirection:      XYZ
		Percentage of random translation moves:            0.000000
		Percentage of rotation moves:                      33.333333
		Percentage of random rotation moves:               0.000000
		Percentage of partial reinsertion moves:           0.000000
		Percentage of reinsertion moves:                   33.333333
		Percentage of reinsertion-in-place moves:          0.000000
		Percentage of reinsertion-in-plane moves:          0.000000
		Percentage of identity-change moves:               0.000000
		Percentage of swap (insert/delete) moves:          0.000000
		Percentage of CF swap lambda moves:                0.000000
		Percentage of CB/CFMC swap lambda moves:           0.000000
		Percentage of Widom insertion moves:               0.000000
		Percentage of CF-Widom insertion moves:            0.000000
		Percentage of Gibbs Widom insertion moves:         0.000000
		Percentage of surface-area moves:                  0.000000
		Percentage of Gibbs particle-transfer moves:       0.000000
		Percentage of Gibbs identity-change moves:         0.000000
		Percentage of CF Gibbs lambda-transfer moves:      0.000000
		Percentage of CB/CFMC Gibbs lambda-transfer moves: 0.000000
		Percentage of exchange frac./int. particle moves:  0.000000
		Percentage of fractional mol. to other box moves:  0.000000
		Percentage of lambda-change moves:                 0.000000
		Percentage of fractional to integer moves:         0.000000

	System Moves:
		Percentage of parallel-tempering moves:            0.000000
		Percentage of hyper-parallel-tempering moves:      0.000000
		Percentage of parallel-mol-fraction moves:         0.000000
			   Component A: 0 B: 1
		Percentage of chiral inversion moves:              0.000000
		Percentage of Hybrid-NVE moves:                    0.000000
		Percentage of Hybrid-NPH moves:                    0.000000
		Percentage of Hybrid-NPHPR moves:                  0.000000
		Percentage of volume-change moves:                 0.000000
		Percentage of box-shape-change moves:              0.000000
		Percentage of Gibbs volume-change moves:           0.000000
		Percentage of framework-change moves:              0.000000
		Percentage of framework-shift moves:               0.000000
		Percentage of reactive MC moves:                   0.000000

	Moves are restricted: No
	No biased sampling used for this component

	Number of Bonds: 4
	--------------------------------------------
	Bond interaction 0: A=0 B=1 Type:RIGID_BOND
		r_0=0.9572000000       [A]
	Bond interaction 1: A=0 B=2 Type:RIGID_BOND
		r_0=0.9572000000       [A]
	Bond interaction 2: A=0 B=3 Type:RIGID_BOND
		r_0=0.7000000000       [A]
	Bond interaction 3: A=0 B=4 Type:RIGID_BOND
		r_0=0.7000000000       [A]


	number of identity-config changes: 1
	--------------------------------------------
	nr fixed 1: 0 

	Number of pockets blocked in a unitcell: 0
		Pockets are NOT blocked for this component



System Properties
===========================================================================
Unit cell size: 24.830000 24.830000 24.830000
Cell angles (radians)  alpha: 1.570796 beta: 1.570796 gamma: 1.570796
Cell angles (degrees)  alpha: 90.000000 beta: 90.000000 gamma: 90.000000
Number of unitcells [a]: 1
Number of unitcells [b]: 1
Number of unitcells [c]: 1

RECTANGULAR Boundary conditions: alpha=beta=gamma=90 degrees

Cartesian axis A is collinear with crystallographic axis a
Cartesian axis B is collinear with (axb)xA
Cartesian axis C is collinear with (axb)

lengths of cell vectors:
 24.99406  24.99406  24.99406
cosines of cell angles:
  0.00000   0.00000   0.00000
perpendicular cell widths:
 24.99406  24.99406  24.99406
volume of the cell: 15613.860743283774 (A^3)

Orthogonalization matrix Box
Transforms fractional coordinates abc into orthonormal Cartesian coordinates xyz
Deorthogonalization matrix InverseBox
Transforms orthonormal Cartesian coordinates xyz into fractional coordinates xyz

Box[0]:
	   24.994057650736     0.000000000000     0.000000000000
	    0.000000000000    24.994057650736     0.000000000000
	    0.000000000000     0.000000000000    24.994057650736

Inverse box[0]:
	    0.040009510019     0.000000000000     0.000000000000
	    0.000000000000     0.040009510019     0.000000000000
	    0.000000000000     0.000000000000     0.040009510019


Unitcell box[0]:
	   24.830000000000     0.000000000000     0.000000000000
	    0.000000000000    24.830000000000     0.000000000000
	    0.000000000000     0.000000000000    24.830000000000

Unitcell inverse box[0]:
	    0.040273862263    -0.000000000000    -0.000000000000
	    0.000000000000     0.040273862263    -0.000000000000
	    0.000000000000     0.000000000000     0.040273862263

lengths of cell vectors (inverse box):
  0.04027   0.04027   0.04027
cosines of cell angles (inverse box):
 -0.00000  -0.00000  -0.00000
perpendicular cell widths (inverse):
  0.04027   0.04027   0.04027
volume of the cell: 15613.860743283774 (A^3)

No replicas are used
Framework is simulated as 'rigid'
Number of framework atoms: 0
Number of framework atoms in the unit cell: 0
Framework Mass:     0.000000000000 [g/mol]
Framework Density:     0.000000000000 [kg/m^3]                inf [cm^3/g]
Helium void fraction:    0.00000000
Available pore volume:    0.00000000 [A^3]           nan [cm^3/g]
Conversion factor from molecule/unit cell -> kmol/m^3: 0.10635, kmol/m^3 accesible pore volume: inf

Number Of Frameworks (per system): 0
----------------------------------------------------------------------

Current Atom Status
===========================================================================
Number of framework atoms        : 0
Number of cations molecules      : 0
Number of adsorbate molecules    : 512
Component    0 :  512 molecules
Pseudo Atoms    0 [    UNIT]:    0 atoms
Pseudo Atoms    1 [      Ow]:  512 atoms
Pseudo Atoms    2 [      Hw]: 1024 atoms
Pseudo Atoms    3 [      Lw]: 1024 atoms


Current (initial full energy) Energy Status
===========================================================================

Internal energy:
Host stretch energy:                                            0.00000000
Host UreyBradley energy:                                        0.00000000
Host bend energy:                                               0.00000000
Host inversion-bend energy:                                     0.00000000
Host torsion energy:                                            0.00000000
Host improper torsion energy:                                   0.00000000
Host out-of-plane energy:                                       0.00000000
Host stretch/stretch energy:                                    0.00000000
Host bend/bend energy:                                          0.00000000
Host stretch/bend energy:                                       0.00000000
Host stretch/torsion energy:                                    0.00000000
Host bend/torsion energy:                                       0.00000000

Adsorbate stretch energy:                                       0.00000000
Adsorbate UreyBradley energy:                                   0.00000000
Adsorbate bend energy:                                          0.00000000
Adsorbate inversion-bend energy:                                0.00000000
Adsorbate torsion energy:                                       0.00000000
Adsorbate improper torsion energy:                              0.00000000
Adsorbate out-of-plane energy:                                  0.00000000
Adsorbate stretch/stretch energy:                               0.00000000
Adsorbate bend/bend energy:                                     0.00000000
Adsorbate stretch/bend energy:                                  0.00000000
Adsorbate stretch/torsion energy:                               0.00000000
Adsorbate bend/torsion energy:                                  0.00000000
Adsorbate intra VDW energy:                                     0.00000000
Adsorbate intra charge-charge Coulomb energy:                   0.00000000
Adsorbate intra charge-bonddipole Coulomb energy:               0.00000000
Adsorbate intra bonddipole-bonddipole Coulomb energy:           0.00000000

Cation stretch energy:                                          0.00000000
Cation UreyBradley energy:                                      0.00000000
Cation bend energy:                                             0.00000000
Cation inversion-bend energy:                                   0.00000000
Cation torsion energy:                                          0.00000000
Cation improper torsion energy:                                 0.00000000
Cation out-of-plane energy:                                     0.00000000
Cation stretch/stretch energy:                                  0.00000000
Cation bend/bend energy:                                        0.00000000
Cation stretch/bend energy:                                     0.00000000
Cation stretch/torsion energy:                                  0.00000000
Cation bend/torsion energy:                                     0.00000000
Cation intra VDW energy:                                        0.00000000
Cation intra charge-charge Coulomb energy:                      0.00000000
Cation intra charge-bonddipole Coulomb energy:                  0.00000000
Cation intra bonddipole-bonddipole Coulomb energy:              0.00000000

Host/Host energy:                                             0.00000000
	Host/Host VDW energy:                                         0.00000000
	Host/Host Coulomb energy:                                     0.00000000
	Host/Host charge-charge Real energy:                          0.00000000
	Host/Host charge-charge Fourier energy:                       0.00000000
	Host/Host charge-bonddipole Real energy:                      0.00000000
	Host/Host charge-bonddipole Fourier energy:                   0.00000000
	Host/Host bondipole-bonddipole Real energy:                   0.00000000
	Host/Host bondipole-bonddipole Fourier energy:                0.00000000

Host/Adsorbate energy:                                        0.00000000
	Host/Adsorbate VDW energy:                                    0.00000000
	Host/Adsorbate Coulomb energy:                                0.00000000
	Host/Adsorbate charge-charge Real energy:                     0.00000000
	Host/Adsorbate charge-charge Fourier energy:                  0.00000000
	Host/Adsorbate charge-bonddipole Real energy:                 0.00000000
	Host/Adsorbate charge-bonddipole Fourier energy:              0.00000000
	Host/Adsorbate bondipole-bonddipole Real energy:              0.00000000
	Host/Adsorbate bondipole-bonddipole Fourier energy:           0.00000000

Host/Cation energy:                                           0.00000000
	Host/Cation VDW energy:                                       0.00000000
	Host/Cation Coulomb energy:                                   0.00000000
	Host/Cation charge-charge Real energy:                        0.00000000
	Host/Cation charge-charge Fourier energy:                     0.00000000
	Host/Cation charge-bonddipole Real energy:                    0.00000000
	Host/Cation charge-bonddipole Fourier energy:                 0.00000000
	Host/Cation bondipole-bonddipole Real energy:                 0.00000000
	Host/Cation bondipole-bonddipole Fourier energy:              0.00000000

Adsorbate/Adsorbate energy:                                 -2526690.15924072
	Adsorbate/Adsorbate VDW energy:                               429909.24664943
	Adsorbate/Adsorbate Coulomb energy:                         -2956599.40589015
	Adsorbate/Adsorbate charge-charge Real energy:              -2833145.37339616
	Adsorbate/Adsorbate charge-charge Fourier energy:            -123454.03249399
	Adsorbate/Adsorbate charge-bonddipole Real energy:                 0.00000000
	Adsorbate/Adsorbate charge-bonddipole Fourier energy:              0.00000000
	Adsorbate/Adsorbate bondipole-bonddipole Real energy:              0.00000000
	Adsorbate/Adsorbate bondipole-bonddipole Fourier energy:           0.00000000

Adsorbate/Cation energy:                                           0.00000000
	Adsorbate/Cation VDW energy:                                       0.00000000
	Adsorbate/Cation Coulomb energy:                                   0.00000000
	Adsorbate/Cation charge-charge Real energy:                        0.00000000
	Adsorbate/Cation charge-charge Fourier energy:                     0.00000000
	Adsorbate/Cation charge-bonddipole Real energy:                    0.00000000
	Adsorbate/Cation charge-bonddipole Fourier energy:                 0.00000000
	Adsorbate/Cation bondipole-bonddipole Real energy:                 0.00000000
	Adsorbate/Cation bondipole-bonddipole Fourier energy:              0.00000000

Cation/Cation energy:                                           0.00000000
	Cation/Cation VDW energy:                                       0.00000000
	Cation/Cation Coulomb energy:                                   0.00000000
	Cation/Cation charge-charge Real energy:                        0.00000000
	Cation/Cation charge-charge Fourier energy:                     0.00000000
	Cation/Cation charge-bonddipole Real energy:                    0.00000000
	Cation/Cation charge-bonddipole Fourier energy:                 0.00000000
	Cation/Cation bondipole-bonddipole Real energy:                 0.00000000
	Cation/Cation bondipole-bonddipole Fourier energy:              0.00000000

Polarization energy:
	Host polarization energy:                                     0.00000000
	Adsorbate polarization energy:                                0.00000000
	Cation polarization energy:                                   0.00000000
	Host back-polarization energy:                                     0.00000000
	Adsorbate back-polarization energy:                                0.00000000
	Cation back-polarization energy:                                   0.00000000

Tail-correction energy:                                       0.00000000

Distance constraints energy:                                  0.00000000
Angle constraints energy:                                     0.00000000
Dihedral constraints energy:                                  0.00000000
Inversion-bend constraints energy:                            0.00000000
Out-of-plane distance constraints energy:                     0.00000000
Exclusion constraints energy:                                 0.00000000

===================================================================
Total energy: -2526690.159240723122
	Total Van der Waals: 429909.246649
	Total Coulomb: -2956599.405890

	Total Polarization: 0.000000







+++++++++++++++++++++++++++++++++++++++++++++++++++++++++++++++++++++++++
Starting simulation
+++++++++++++++++++++++++++++++++++++++++++++++++++++++++++++++++++++++++

[Equilibration] Current cycle: 0 out of 10000
========================================================================================================

Net charge: 0 (F: 0, A: 0, C: 0)
Current Box:  24.99406   0.00000   0.00000 [A]
               0.00000  24.99406   0.00000 [A]
               0.00000   0.00000  24.99406 [A]
Box-lengths:  24.99406  24.99406  24.99406 Box-angles:   90.00000  90.00000  90.00000 [degrees]
Volume: 15613.86074 [A^3]

Total linear momentum:      -0.0000000000 [A]      -0.0000000000 [A]       0.0000000000 [A]

Amount of molecules per component:
----------------------------------------------------------------------------------------------------------------------------------------------------
Component 0 (Tip5p), current number of integer/fractional/reaction molecules: 512/0/0, density: 980.19055 [kg/m^3]
----------------------------------------------------------------------------------------------------------------------------------------------------
Degrees of freedom: 3069 0 3069 0
Number of Framework-atoms:      0
Number of Adsorbates:         512 (512 integer, 0 fractional, 0 reaction)
Number of Cations:              0 (0 integer, 0 fractional, 0 reaction)

Conserved energy:    -1881453.5464167595 Energy drifts:  0.0000000000           0.0000000000
Temperature:                    304.2343736089
Temperature Adsorbates:         304.2343736089
Cell temperature:   52.850
Current total kinetic energy:            388158.8377846680 [K]
Current total Nose-Hoover energy:        148320.4044123712 [K]
Current total potential energy:          -2526690.1592407213 [K]
	Current Host-Host energy:                     0.0000000000 [K]
	Current Host-Adsorbate energy:                0.0000000000 [K]
	Current Host-Cation energy:                   0.0000000000 [K]
	Current Adsorbate-Adsorbate energy:    -2526690.1592407213 [K]
	Current Cation-Cation energy:                 0.0000000000 [K]
	Current Adsorbate-Cation energy:              0.0000000000 [K]



[Equilibration] Current cycle: 5000 out of 10000
========================================================================================================

Net charge: 0 (F: 0, A: 0, C: 0)
Current Box:  25.05778   0.00000   0.00000 [A]
               0.00000  25.05778   0.00000 [A]
               0.00000   0.00000  25.05778 [A]
Box-lengths:  25.05778  25.05778  25.05778 Box-angles:   90.00000  90.00000  90.00000 [degrees]
Volume: 15733.59302 [A^3]

Total linear momentum:      -0.0000000000 [A]      -0.0000000000 [A]       0.0000000000 [A]

Amount of molecules per component:
----------------------------------------------------------------------------------------------------------------------------------------------------
Component 0 (Tip5p), current number of integer/fractional/reaction molecules: 512/0/0, density: 972.73132 [kg/m^3]
----------------------------------------------------------------------------------------------------------------------------------------------------
Degrees of freedom: 3069 0 3069 0
Number of Framework-atoms:      0
Number of Adsorbates:         512 (512 integer, 0 fractional, 0 reaction)
Number of Cations:              0 (0 integer, 0 fractional, 0 reaction)

Conserved energy:    -1881488.3505897010 Energy drifts:  0.0000222487           0.0000177268
Temperature:                    288.7107494288
Temperature Adsorbates:         288.7107494288
Cell temperature:  522.607
Current total kinetic energy:            368352.9498158604 [K]
Current total Nose-Hoover energy:         98575.5516809309 [K]
Current total potential energy:          -2443074.5985551039 [K]
	Current Host-Host energy:                     0.0000000000 [K]
	Current Host-Adsorbate energy:                0.0000000000 [K]
	Current Host-Cation energy:                   0.0000000000 [K]
	Current Adsorbate-Adsorbate energy:    -2443074.5985551039 [K]
	Current Cation-Cation energy:                 0.0000000000 [K]
	Current Adsorbate-Cation energy:              0.0000000000 [K]



Average Properties at Current cycle: 0 out of 100000
========================================================================================

Framework surface area:                nan [m^2/g]        0.0000000000 [m^2/cm^3]       0.0000000000 [A^2]
	Cation surface area:                                nan [m^2/g]        0.0000000000 [m^2/cm^3]       0.0000000000 [A^2]
Compressibility:       0.0000000000 [-]
Henry coefficients
	Component 0: 0 [mol/kg/Pa] (Rosenbluth factor new: 0 [-])
Energy <U_gh>_1-<U_h>_0 from Widom


Current cycle: 0 out of 100000
========================================================================================================

Time run:   0.000000 [ps]   0.000000 [ns] 
Net charge: 0 (F: 0, A: 0, C: 0)
Current Box:  24.95808   0.00000   0.00000 [A]   Average Box:  24.95808   0.00000   0.00000 [A]
               0.00000  24.95808   0.00000 [A]                  0.00000  24.95808   0.00000 [A]
               0.00000   0.00000  24.95808 [A]                  0.00000   0.00000  24.95808 [A]
Box-lengths:   24.95808  24.95808  24.95808 [A] Average:  24.95808  24.95808  24.95808 [A]
Box-angles:   90.00000  90.00000  90.00000 [degrees] Average:  90.00000  90.00000  90.00000 [degrees]
Volume: 15546.52383 [A^3] Average Volume: 15546.52383 [A^3]

Total linear momentum:      -0.0000000000 [A]      -0.0000000000 [A]       0.0000000000 [A]

Current Stress:  17.75633  10.72353  37.29722 [MPa]   Average Stress: 17756.32644 10723.53134 37297.22059 [kPa]
                 10.72353 -24.64318  63.25021 [MPa]                   10723.53134 -24643.17841 63250.20550 [kPa]
                 37.29722  63.25021 -86.26210 [MPa]                   37297.22059 63250.20550 -86262.10492 [kPa]
Average pressure:  -31049.6522957828 [kPa]    -306.4362427415 [atm]    -310.4965229578 [bar]

Amount of molecules per component:
----------------------------------------------------------------------------------------------------------------------------------------------------
Component 0 (Tip5p), current number of integer/fractional/reaction molecules: 512/0/0 (average 512.00000/  0.00000), density: 984.43606 (average 984.43606) kg/m^3]
----------------------------------------------------------------------------------------------------------------------------------------------------
Degrees of freedom: 3069 0 3069 0
Number of Framework-atoms:      0
Number of Adsorbates:         512 (512 integer, 0 fractional, 0 reaction)
Number of Cations:              0 (0 integer, 0 fractional, 0 reaction)

Conserved energy:    -1881648.9801414090 Energy drifts:  0.0000000000           0.0000000000
Temperature:             289.301 (avg.  289.301), Translational (avg.  308.814), Rotational (avg.  269.826)
Temperature Adsorbates:  289.301 (avg.  289.301), Translational (avg.  308.814), Rotational (avg.  269.826)
Cell temperature:   77.740 (avg.   77.740)
Current total kinetic energy:            369106.0033510925 [K]
Current total Nose-Hoover energy:        146355.6856658484 [K]
Current total potential energy:          -2501607.2713508448 [K]  (avg.    -2501607.2713508448)
	Current Host-Host energy:                     0.0000000000 [K]  (avg.           0.0000000000)
	Current Host-Adsorbate energy:                0.0000000000 [K]  (avg.           0.0000000000)
	Current Host-Cation energy:                   0.0000000000 [K]  (avg.           0.0000000000)
	Current Adsorbate-Adsorbate energy:    -2501607.2713508448 [K]  (avg.    -2501607.2713508448)
	Current Cation-Cation energy:                 0.0000000000 [K]  (avg.           0.0000000000)
	Current Adsorbate-Cation energy:              0.0000000000 [K]  (avg.           0.0000000000)



Current cycle: 5000 out of 100000
========================================================================================================

Time run:   5.000000 [ps]   0.005000 [ns] 
Net charge: 0 (F: 0, A: 0, C: 0)
Current Box:  24.80850   0.00000   0.00000 [A]   Average Box:  24.82755   0.00000   0.00000 [A]
               0.00000  24.80850   0.00000 [A]                  0.00000  24.82755   0.00000 [A]
               0.00000   0.00000  24.80850 [A]                  0.00000   0.00000  24.82755 [A]
Box-lengths:   24.80850  24.80850  24.80850 [A] Average:  24.82755  24.82755  24.82755 [A]
Box-angles:   90.00000  90.00000  90.00000 [degrees] Average:  90.00000  90.00000  90.00000 [degrees]
Volume: 15268.67483 [A^3] Average Volume: 15304.44581 [A^3]

Total linear momentum:      -0.0000000000 [A]      -0.0000000000 [A]       0.0000000000 [A]

Current Stress: 109.61519  39.44072  56.95504 [MPa]   Average Stress: 2283.30730 13609.07120 1494.70943 [kPa]
                 39.44072 126.25181 -18.75819 [MPa]                   13609.07120 -6148.76344 -23749.43640 [kPa]
                 56.95504 -18.75819  66.93421 [MPa]                   1494.70943 -23749.43640 4115.45789 [kPa]
Average pressure:      83.3339169688 [kPa]       0.8224418156 [atm]       0.8333391697 [bar]

Amount of molecules per component:
----------------------------------------------------------------------------------------------------------------------------------------------------
Component 0 (Tip5p), current number of integer/fractional/reaction molecules: 512/0/0 (average 512.00000/  0.00000), density: 1002.35016 (average 1000.11897) kg/m^3]
----------------------------------------------------------------------------------------------------------------------------------------------------
Degrees of freedom: 3069 0 3069 0
Number of Framework-atoms:      0
Number of Adsorbates:         512 (512 integer, 0 fractional, 0 reaction)
Number of Cations:              0 (0 integer, 0 fractional, 0 reaction)

Conserved energy:    -1881417.7092752431 Energy drifts:  0.0001478252           0.0000551596
Temperature:             298.883 (avg.  300.801), Translational (avg.  300.879), Rotational (avg.  300.723)
Temperature Adsorbates:  298.883 (avg.  300.801), Translational (avg.  300.879), Rotational (avg.  300.723)
Cell temperature:    4.657 (avg.  312.606)
Current total kinetic energy:            381330.6698104411 [K]
Current total Nose-Hoover energy:        127562.0407636928 [K]
Current total potential energy:          -2493475.3305858909 [K]  (avg.    -2490096.8651071936)
	Current Host-Host energy:                     0.0000000000 [K]  (avg.           0.0000000000)
	Current Host-Adsorbate energy:                0.0000000000 [K]  (avg.           0.0000000000)
	Current Host-Cation energy:                   0.0000000000 [K]  (avg.           0.0000000000)
	Current Adsorbate-Adsorbate energy:    -2493475.3305858909 [K]  (avg.    -2490096.8651071936)
	Current Cation-Cation energy:                 0.0000000000 [K]  (avg.           0.0000000000)
	Current Adsorbate-Cation energy:              0.0000000000 [K]  (avg.           0.0000000000)



Average Properties at Current cycle: 10000 out of 100000
========================================================================================

Framework surface area:                nan [m^2/g]        0.0000000000 [m^2/cm^3]       0.0000000000 [A^2]
	Cation surface area:                                nan [m^2/g]        0.0000000000 [m^2/cm^3]       0.0000000000 [A^2]
Compressibility:       0.0000000000 [-]
Henry coefficients
	Component 0: 0 [mol/kg/Pa] (Rosenbluth factor new: 0 [-])
Energy <U_gh>_1-<U_h>_0 from Widom


Current cycle: 10000 out of 100000
========================================================================================================

Time run:  10.000000 [ps]   0.010000 [ns] 
Net charge: 0 (F: 0, A: 0, C: 0)
Current Box:  24.90133   0.00000   0.00000 [A]   Average Box:  24.84701   0.00000   0.00000 [A]
               0.00000  24.90133   0.00000 [A]                  0.00000  24.84701   0.00000 [A]
               0.00000   0.00000  24.90133 [A]                  0.00000   0.00000  24.84701 [A]
Box-lengths:   24.90133  24.90133  24.90133 [A] Average:  24.84701  24.84701  24.84701 [A]
Box-angles:   90.00000  90.00000  90.00000 [degrees] Average:  90.00000  90.00000  90.00000 [degrees]
Volume: 15440.72321 [A^3] Average Volume: 15340.59482 [A^3]

Total linear momentum:      -0.0000000000 [A]      -0.0000000000 [A]       0.0000000000 [A]

Current Stress:  59.46249  32.66550  43.76719 [MPa]   Average Stress: 4164.21603 13237.41112 4800.64787 [kPa]
                 32.66550 117.29465  62.17473 [MPa]                   13237.41112 -8775.22405 -10159.15112 [kPa]
                 43.76719  62.17473  13.61332 [MPa]                   4800.64787 -10159.15112 5084.06230 [kPa]
Average pressure:     157.6847585995 [kPa]       1.5562275707 [atm]       1.5768475860 [bar]

Amount of molecules per component:
----------------------------------------------------------------------------------------------------------------------------------------------------
Component 0 (Tip5p), current number of integer/fractional/reaction molecules: 512/0/0 (average 512.00000/  0.00000), density: 991.18147 (average 997.78761) kg/m^3]
----------------------------------------------------------------------------------------------------------------------------------------------------
Degrees of freedom: 3069 0 3069 0
Number of Framework-atoms:      0
Number of Adsorbates:         512 (512 integer, 0 fractional, 0 reaction)
Number of Cations:              0 (0 integer, 0 fractional, 0 reaction)

Conserved energy:    -1881284.5703343502 Energy drifts:  0.0002329258           0.0001124413
Temperature:             306.298 (avg.  300.504), Translational (avg.  300.074), Rotational (avg.  300.933)
Temperature Adsorbates:  306.298 (avg.  300.504), Translational (avg.  300.074), Rotational (avg.  300.933)
Cell temperature:  140.809 (avg.  297.610)
Current total kinetic energy:            390791.5818702036 [K]
Current total Nose-Hoover energy:        126324.2574764531 [K]
Current total potential energy:          -2503232.3483158676 [K]  (avg.    -2496682.5283484603)
	Current Host-Host energy:                     0.0000000000 [K]  (avg.           0.0000000000)
	Current Host-Adsorbate energy:                0.0000000000 [K]  (avg.           0.0000000000)
	Current Host-Cation energy:                   0.0000000000 [K]  (avg.           0.0000000000)
	Current Adsorbate-Adsorbate energy:    -2503232.3483158676 [K]  (avg.    -2496682.5283484603)
	Current Cation-Cation energy:                 0.0000000000 [K]  (avg.           0.0000000000)
	Current Adsorbate-Cation energy:              0.0000000000 [K]  (avg.           0.0000000000)



Current cycle: 15000 out of 100000
========================================================================================================

Time run:  15.000000 [ps]   0.015000 [ns] 
Net charge: 0 (F: 0, A: 0, C: 0)
Current Box:  25.00435   0.00000   0.00000 [A]   Average Box:  24.86096   0.00000   0.00000 [A]
               0.00000  25.00435   0.00000 [A]                  0.00000  24.86096   0.00000 [A]
               0.00000   0.00000  25.00435 [A]                  0.00000   0.00000  24.86096 [A]
Box-lengths:   25.00435  25.00435  25.00435 [A] Average:  24.86096  24.86096  24.86096 [A]
Box-angles:   90.00000  90.00000  90.00000 [degrees] Average:  90.00000  90.00000  90.00000 [degrees]
Volume: 15633.16331 [A^3] Average Volume: 15366.41959 [A^3]

Total linear momentum:      -0.0000000000 [A]      -0.0000000000 [A]       0.0000000000 [A]

Current Stress: -145.53493  34.91499 -40.22786 [MPa]   Average Stress: 1691.87902 8266.49196 4854.34617 [kPa]
                 34.91499 -152.41966  16.77195 [MPa]                   8266.49196 -3624.72885 -9861.96394 [kPa]
                -40.22786  16.77195 -140.88027 [MPa]                   4854.34617 -9861.96394 2348.18308 [kPa]
Average pressure:     138.4444167880 [kPa]       1.3663401608 [atm]       1.3844441679 [bar]

Amount of molecules per component:
----------------------------------------------------------------------------------------------------------------------------------------------------
Component 0 (Tip5p), current number of integer/fractional/reaction molecules: 512/0/0 (average 512.00000/  0.00000), density: 978.98029 (average 996.10344) kg/m^3]
----------------------------------------------------------------------------------------------------------------------------------------------------
Degrees of freedom: 3069 0 3069 0
Number of Framework-atoms:      0
Number of Adsorbates:         512 (512 integer, 0 fractional, 0 reaction)
Number of Cations:              0 (0 integer, 0 fractional, 0 reaction)

Conserved energy:    -1881476.1092647612 Energy drifts:  0.0001104967           0.0001300323
Temperature:             303.498 (avg.  300.317), Translational (avg.  300.231), Rotational (avg.  300.404)
Temperature Adsorbates:  303.498 (avg.  300.317), Translational (avg.  300.231), Rotational (avg.  300.404)
Cell temperature:  534.818 (avg.  284.887)
Current total kinetic energy:            387218.9873788705 [K]
Current total Nose-Hoover energy:        140557.0768430983 [K]
Current total potential energy:          -2516245.1985841026 [K]  (avg.    -2497279.9667287339)
	Current Host-Host energy:                     0.0000000000 [K]  (avg.           0.0000000000)
	Current Host-Adsorbate energy:                0.0000000000 [K]  (avg.           0.0000000000)
	Current Host-Cation energy:                   0.0000000000 [K]  (avg.           0.0000000000)
	Current Adsorbate-Adsorbate energy:    -2516245.1985841026 [K]  (avg.    -2497279.9667287339)
	Current Cation-Cation energy:                 0.0000000000 [K]  (avg.           0.0000000000)
	Current Adsorbate-Cation energy:              0.0000000000 [K]  (avg.           0.0000000000)



Average Properties at Current cycle: 20000 out of 100000
========================================================================================

Framework surface area:                nan [m^2/g]        0.0000000000 [m^2/cm^3]       0.0000000000 [A^2]
	Cation surface area:                                nan [m^2/g]        0.0000000000 [m^2/cm^3]       0.0000000000 [A^2]
Compressibility:       0.0000000000 [-]
Henry coefficients
	Component 0: 0 [mol/kg/Pa] (Rosenbluth factor new: 0 [-])
Energy <U_gh>_1-<U_h>_0 from Widom


Current cycle: 20000 out of 100000
========================================================================================================

Time run:  20.000000 [ps]   0.020000 [ns] 
Net charge: 0 (F: 0, A: 0, C: 0)
Current Box:  25.00851   0.00000   0.00000 [A]   Average Box:  24.87030   0.00000   0.00000 [A]
               0.00000  25.00851   0.00000 [A]                  0.00000  24.87030   0.00000 [A]
               0.00000   0.00000  25.00851 [A]                  0.00000   0.00000  24.87030 [A]
Box-lengths:   25.00851  25.00851  25.00851 [A] Average:  24.87030  24.87030  24.87030 [A]
Box-angles:   90.00000  90.00000  90.00000 [degrees] Average:  90.00000  90.00000  90.00000 [degrees]
Volume: 15640.95381 [A^3] Average Volume: 15383.74870 [A^3]

Total linear momentum:      -0.0000000000 [A]      -0.0000000000 [A]       0.0000000000 [A]

Current Stress: -61.02494   9.48146 -71.08906 [MPa]   Average Stress: 1465.29583 6508.79092 5379.85214 [kPa]
                  9.48146 -76.16805  28.06284 [MPa]                   6508.79092 -4567.70269 -6915.27051 [kPa]
                -71.08906  28.06284  -5.12918 [MPa]                   5379.85214 -6915.27051 3421.01661 [kPa]
Average pressure:     106.2032513635 [kPa]       1.0481445977 [atm]       1.0620325136 [bar]

Amount of molecules per component:
----------------------------------------------------------------------------------------------------------------------------------------------------
Component 0 (Tip5p), current number of integer/fractional/reaction molecules: 512/0/0 (average 512.00000/  0.00000), density: 978.49267 (average 994.98238) kg/m^3]
----------------------------------------------------------------------------------------------------------------------------------------------------
Degrees of freedom: 3069 0 3069 0
Number of Framework-atoms:      0
Number of Adsorbates:         512 (512 integer, 0 fractional, 0 reaction)
Number of Cations:              0 (0 integer, 0 fractional, 0 reaction)

Conserved energy:    -1881483.3142030681 Energy drifts:  0.0001058914           0.0001236038
Temperature:             300.562 (avg.  300.310), Translational (avg.  300.430), Rotational (avg.  300.191)
Temperature Adsorbates:  300.562 (avg.  300.310), Translational (avg.  300.430), Rotational (avg.  300.191)
Cell temperature:   30.882 (avg.  277.502)
Current total kinetic energy:            383472.9952541704 [K]
Current total Nose-Hoover energy:        119708.9643768392 [K]
Current total potential energy:          -2486672.4766705884 [K]  (avg.    -2497276.6334883487)
	Current Host-Host energy:                     0.0000000000 [K]  (avg.           0.0000000000)
	Current Host-Adsorbate energy:                0.0000000000 [K]  (avg.           0.0000000000)
	Current Host-Cation energy:                   0.0000000000 [K]  (avg.           0.0000000000)
	Current Adsorbate-Adsorbate energy:    -2486672.4766705884 [K]  (avg.    -2497276.6334883487)
	Current Cation-Cation energy:                 0.0000000000 [K]  (avg.           0.0000000000)
	Current Adsorbate-Cation energy:              0.0000000000 [K]  (avg.           0.0000000000)



Current cycle: 25000 out of 100000
========================================================================================================

Time run:  25.000000 [ps]   0.025000 [ns] 
Net charge: 0 (F: 0, A: 0, C: 0)
Current Box:  24.97038   0.00000   0.00000 [A]   Average Box:  24.86553   0.00000   0.00000 [A]
               0.00000  24.97038   0.00000 [A]                  0.00000  24.86553   0.00000 [A]
               0.00000   0.00000  24.97038 [A]                  0.00000   0.00000  24.86553 [A]
Box-lengths:   24.97038  24.97038  24.97038 [A] Average:  24.86553  24.86553  24.86553 [A]
Box-angles:   90.00000  90.00000  90.00000 [degrees] Average:  90.00000  90.00000  90.00000 [degrees]
Volume: 15569.53523 [A^3] Average Volume: 15374.86180 [A^3]

Total linear momentum:       0.0000000000 [A]      -0.0000000000 [A]       0.0000000000 [A]

Current Stress:  -2.37492 -27.50936  35.01044 [MPa]   Average Stress: 2875.57018 4540.58183 710.80289 [kPa]
                -27.50936 -54.47988  71.19588 [MPa]                   4540.58183 -5170.88959 -2645.24169 [kPa]
                 35.01044  71.19588 -86.14945 [MPa]                   710.80289 -2645.24169 2613.70648 [kPa]
Average pressure:     106.1290228551 [kPa]       1.0474120193 [atm]       1.0612902286 [bar]

Amount of molecules per component:
----------------------------------------------------------------------------------------------------------------------------------------------------
Component 0 (Tip5p), current number of integer/fractional/reaction molecules: 512/0/0 (average 512.00000/  0.00000), density: 982.98109 (average 995.55307) kg/m^3]
----------------------------------------------------------------------------------------------------------------------------------------------------
Degrees of freedom: 3069 0 3069 0
Number of Framework-atoms:      0
Number of Adsorbates:         512 (512 integer, 0 fractional, 0 reaction)
Number of Cations:              0 (0 integer, 0 fractional, 0 reaction)

Conserved energy:    -1881376.5814703840 Energy drifts:  0.0001741135           0.0001240552
Temperature:             294.826 (avg.  300.161), Translational (avg.  300.063), Rotational (avg.  300.258)
Temperature Adsorbates:  294.826 (avg.  300.161), Translational (avg.  300.063), Rotational (avg.  300.258)
Cell temperature:  136.533 (avg.  268.718)
Current total kinetic energy:            376154.7391688869 [K]
Current total Nose-Hoover energy:        114406.4016749188 [K]
Current total potential energy:          -2471386.3786898269 [K]  (avg.    -2496394.0500904294)
	Current Host-Host energy:                     0.0000000000 [K]  (avg.           0.0000000000)
	Current Host-Adsorbate energy:                0.0000000000 [K]  (avg.           0.0000000000)
	Current Host-Cation energy:                   0.0000000000 [K]  (avg.           0.0000000000)
	Current Adsorbate-Adsorbate energy:    -2471386.3786898269 [K]  (avg.    -2496394.0500904294)
	Current Cation-Cation energy:                 0.0000000000 [K]  (avg.           0.0000000000)
	Current Adsorbate-Cation energy:              0.0000000000 [K]  (avg.           0.0000000000)



Average Properties at Current cycle: 30000 out of 100000
========================================================================================

Framework surface area:                nan [m^2/g]        0.0000000000 [m^2/cm^3]       0.0000000000 [A^2]
	Cation surface area:                                nan [m^2/g]        0.0000000000 [m^2/cm^3]       0.0000000000 [A^2]
Compressibility:       0.0000000000 [-]
Henry coefficients
	Component 0: 0 [mol/kg/Pa] (Rosenbluth factor new: 0 [-])
Energy <U_gh>_1-<U_h>_0 from Widom


Current cycle: 30000 out of 100000
========================================================================================================

Time run:  30.000000 [ps]   0.030000 [ns] 
Net charge: 0 (F: 0, A: 0, C: 0)
Current Box:  24.80758   0.00000   0.00000 [A]   Average Box:  24.87249   0.00000   0.00000 [A]
               0.00000  24.80758   0.00000 [A]                  0.00000  24.87249   0.00000 [A]
               0.00000   0.00000  24.80758 [A]                  0.00000   0.00000  24.87249 [A]
Box-lengths:   24.80758  24.80758  24.80758 [A] Average:  24.87249  24.87249  24.87249 [A]
Box-angles:   90.00000  90.00000  90.00000 [degrees] Average:  90.00000  90.00000  90.00000 [degrees]
Volume: 15266.98621 [A^3] Average Volume: 15387.78059 [A^3]

Total linear momentum:       0.0000000000 [A]      -0.0000000000 [A]       0.0000000000 [A]

Current Stress: -41.29872  72.70882  -6.62975 [MPa]   Average Stress: 2619.45206 966.37863 1158.01293 [kPa]
                 72.70882  89.23735  52.08144 [MPa]                   966.37863 -4253.19732 -2639.60967 [kPa]
                 -6.62975  52.08144  -5.96882 [MPa]                   1158.01293 -2639.60967 1825.15387 [kPa]
Average pressure:      63.8028704749 [kPa]       0.6296853735 [atm]       0.6380287047 [bar]

Amount of molecules per component:
----------------------------------------------------------------------------------------------------------------------------------------------------
Component 0 (Tip5p), current number of integer/fractional/reaction molecules: 512/0/0 (average 512.00000/  0.00000), density: 1002.46103 (average 994.71562) kg/m^3]
----------------------------------------------------------------------------------------------------------------------------------------------------
Degrees of freedom: 3069 0 3069 0
Number of Framework-atoms:      0
Number of Adsorbates:         512 (512 integer, 0 fractional, 0 reaction)
Number of Cations:              0 (0 integer, 0 fractional, 0 reaction)

Conserved energy:    -1881459.4275753791 Energy drifts:  0.0001211594           0.0001156730
Temperature:             297.917 (avg.  299.965), Translational (avg.  299.821), Rotational (avg.  300.108)
Temperature Adsorbates:  297.917 (avg.  299.965), Translational (avg.  299.821), Rotational (avg.  300.108)
Cell temperature:  634.096 (avg.  276.125)
Current total kinetic energy:            380099.3562294779 [K]
Current total Nose-Hoover energy:        129680.8823879148 [K]
Current total potential energy:          -2494584.5004170006 [K]  (avg.    -2497379.3995052446)
	Current Host-Host energy:                     0.0000000000 [K]  (avg.           0.0000000000)
	Current Host-Adsorbate energy:                0.0000000000 [K]  (avg.           0.0000000000)
	Current Host-Cation energy:                   0.0000000000 [K]  (avg.           0.0000000000)
	Current Adsorbate-Adsorbate energy:    -2494584.5004170006 [K]  (avg.    -2497379.3995052446)
	Current Cation-Cation energy:                 0.0000000000 [K]  (avg.           0.0000000000)
	Current Adsorbate-Cation energy:              0.0000000000 [K]  (avg.           0.0000000000)



Current cycle: 35000 out of 100000
========================================================================================================

Time run:  35.000000 [ps]   0.035000 [ns] 
Net charge: 0 (F: 0, A: 0, C: 0)
Current Box:  24.88435   0.00000   0.00000 [A]   Average Box:  24.87180   0.00000   0.00000 [A]
               0.00000  24.88435   0.00000 [A]                  0.00000  24.87180   0.00000 [A]
               0.00000   0.00000  24.88435 [A]                  0.00000   0.00000  24.87180 [A]
Box-lengths:   24.88435  24.88435  24.88435 [A] Average:  24.87180  24.87180  24.87180 [A]
Box-angles:   90.00000  90.00000  90.00000 [degrees] Average:  90.00000  90.00000  90.00000 [degrees]
Volume: 15409.15453 [A^3] Average Volume: 15386.47807 [A^3]

Total linear momentum:      -0.0000000000 [A]      -0.0000000000 [A]       0.0000000000 [A]

Current Stress:  -4.29229   9.24680  19.22261 [MPa]   Average Stress: 1471.35956 -178.92411 1050.09401 [kPa]
                  9.24680 -59.75432  45.26184 [MPa]                   -178.92411 -3360.66228 -876.94177 [kPa]
                 19.22261  45.26184  59.92807 [MPa]                   1050.09401 -876.94177 2147.18502 [kPa]
Average pressure:      85.9607670184 [kPa]       0.8483668100 [atm]       0.8596076702 [bar]

Amount of molecules per component:
----------------------------------------------------------------------------------------------------------------------------------------------------
Component 0 (Tip5p), current number of integer/fractional/reaction molecules: 512/0/0 (average 512.00000/  0.00000), density: 993.21210 (average 994.79639) kg/m^3]
----------------------------------------------------------------------------------------------------------------------------------------------------
Degrees of freedom: 3069 0 3069 0
Number of Framework-atoms:      0
Number of Adsorbates:         512 (512 integer, 0 fractional, 0 reaction)
Number of Cations:              0 (0 integer, 0 fractional, 0 reaction)

Conserved energy:    -1881419.1639921789 Energy drifts:  0.0001468953           0.0001162508
Temperature:             300.798 (avg.  300.097), Translational (avg.  299.816), Rotational (avg.  300.378)
Temperature Adsorbates:  300.798 (avg.  300.097), Translational (avg.  299.816), Rotational (avg.  300.378)
Cell temperature:   77.219 (avg.  272.755)
Current total kinetic energy:            383774.3020855021 [K]
Current total Nose-Hoover energy:        137968.9516559600 [K]
Current total potential energy:          -2508932.4456416653 [K]  (avg.    -2495611.2709324267)
	Current Host-Host energy:                     0.0000000000 [K]  (avg.           0.0000000000)
	Current Host-Adsorbate energy:                0.0000000000 [K]  (avg.           0.0000000000)
	Current Host-Cation energy:                   0.0000000000 [K]  (avg.           0.0000000000)
	Current Adsorbate-Adsorbate energy:    -2508932.4456416653 [K]  (avg.    -2495611.2709324267)
	Current Cation-Cation energy:                 0.0000000000 [K]  (avg.           0.0000000000)
	Current Adsorbate-Cation energy:              0.0000000000 [K]  (avg.           0.0000000000)



Average Properties at Current cycle: 40000 out of 100000
========================================================================================

Framework surface area:                nan [m^2/g]        0.0000000000 [m^2/cm^3]       0.0000000000 [A^2]
	Cation surface area:                                nan [m^2/g]        0.0000000000 [m^2/cm^3]       0.0000000000 [A^2]
Compressibility:       0.0000000000 [-]
Henry coefficients
	Component 0: 0 [mol/kg/Pa] (Rosenbluth factor new: 0 [-])
Energy <U_gh>_1-<U_h>_0 from Widom


Current cycle: 40000 out of 100000
========================================================================================================

Time run:  40.000000 [ps]   0.040000 [ns] 
Net charge: 0 (F: 0, A: 0, C: 0)
Current Box:  24.83915   0.00000   0.00000 [A]   Average Box:  24.86791   0.00000   0.00000 [A]
               0.00000  24.83915   0.00000 [A]                  0.00000  24.86791   0.00000 [A]
               0.00000   0.00000  24.83915 [A]                  0.00000   0.00000  24.86791 [A]
Box-lengths:   24.83915  24.83915  24.83915 [A] Average:  24.86791  24.86791  24.86791 [A]
Box-angles:   90.00000  90.00000  90.00000 [degrees] Average:  90.00000  90.00000  90.00000 [degrees]
Volume: 15325.33498 [A^3] Average Volume: 15379.24175 [A^3]

Total linear momentum:       0.0000000000 [A]      -0.0000000000 [A]       0.0000000000 [A]

Current Stress: -75.46032 -68.78702 -12.86564 [MPa]   Average Stress: 292.75364 -577.69901 1354.58131 [kPa]
                -68.78702  78.52086 -88.07895 [MPa]                   -577.69901 -3105.48957 463.45818 [kPa]
                -12.86564 -88.07895 115.89343 [MPa]                   1354.58131 463.45818 3094.30385 [kPa]
Average pressure:      93.8559713294 [kPa]       0.9262864183 [atm]       0.9385597133 [bar]

Amount of molecules per component:
----------------------------------------------------------------------------------------------------------------------------------------------------
Component 0 (Tip5p), current number of integer/fractional/reaction molecules: 512/0/0 (average 512.00000/  0.00000), density: 998.64432 (average 995.26250) kg/m^3]
----------------------------------------------------------------------------------------------------------------------------------------------------
Degrees of freedom: 3069 0 3069 0
Number of Framework-atoms:      0
Number of Adsorbates:         512 (512 integer, 0 fractional, 0 reaction)
Number of Cations:              0 (0 integer, 0 fractional, 0 reaction)

Conserved energy:    -1881215.8161892446 Energy drifts:  0.0002768725           0.0001246835
Temperature:             300.516 (avg.  300.091), Translational (avg.  299.727), Rotational (avg.  300.454)
Temperature Adsorbates:  300.516 (avg.  300.091), Translational (avg.  299.727), Rotational (avg.  300.454)
Cell temperature:    0.531 (avg.  277.714)
Current total kinetic energy:            383414.4251487307 [K]
Current total Nose-Hoover energy:         71593.0762869145 [K]
Current total potential energy:          -2428464.3878832832 [K]  (avg.    -2494780.5184216499)
	Current Host-Host energy:                     0.0000000000 [K]  (avg.           0.0000000000)
	Current Host-Adsorbate energy:                0.0000000000 [K]  (avg.           0.0000000000)
	Current Host-Cation energy:                   0.0000000000 [K]  (avg.           0.0000000000)
	Current Adsorbate-Adsorbate energy:    -2428464.3878832832 [K]  (avg.    -2494780.5184216499)
	Current Cation-Cation energy:                 0.0000000000 [K]  (avg.           0.0000000000)
	Current Adsorbate-Cation energy:              0.0000000000 [K]  (avg.           0.0000000000)



Current cycle: 45000 out of 100000
========================================================================================================

Time run:  45.000000 [ps]   0.045000 [ns] 
Net charge: 0 (F: 0, A: 0, C: 0)
Current Box:  24.70816   0.00000   0.00000 [A]   Average Box:  24.86702   0.00000   0.00000 [A]
               0.00000  24.70816   0.00000 [A]                  0.00000  24.86702   0.00000 [A]
               0.00000   0.00000  24.70816 [A]                  0.00000   0.00000  24.86702 [A]
Box-lengths:   24.70816  24.70816  24.70816 [A] Average:  24.86702  24.86702  24.86702 [A]
Box-angles:   90.00000  90.00000  90.00000 [degrees] Average:  90.00000  90.00000  90.00000 [degrees]
Volume: 15084.16800 [A^3] Average Volume: 15377.59092 [A^3]

Total linear momentum:       0.0000000000 [A]      -0.0000000000 [A]       0.0000000000 [A]

Current Stress: -29.54076 -15.43444  43.36638 [MPa]   Average Stress: -107.17748 -951.06188 1294.44864 [kPa]
                -15.43444 -81.95451  14.08222 [MPa]                   -951.06188 -1051.61702 193.34502 [kPa]
                 43.36638  14.08222 -12.81030 [MPa]                   1294.44864 193.34502 1497.16642 [kPa]
Average pressure:     112.7906360763 [kPa]       1.1131570301 [atm]       1.1279063608 [bar]

Amount of molecules per component:
----------------------------------------------------------------------------------------------------------------------------------------------------
Component 0 (Tip5p), current number of integer/fractional/reaction molecules: 512/0/0 (average 512.00000/  0.00000), density: 1014.61073 (average 995.36680) kg/m^3]
----------------------------------------------------------------------------------------------------------------------------------------------------
Degrees of freedom: 3069 0 3069 0
Number of Framework-atoms:      0
Number of Adsorbates:         512 (512 integer, 0 fractional, 0 reaction)
Number of Cations:              0 (0 integer, 0 fractional, 0 reaction)

Conserved energy:    -1881358.3548976318 Energy drifts:  0.0001857637           0.0001347605
Temperature:             306.254 (avg.  300.200), Translational (avg.  299.870), Rotational (avg.  300.529)
Temperature Adsorbates:  306.254 (avg.  300.200), Translational (avg.  299.870), Rotational (avg.  300.529)
Cell temperature:  551.956 (avg.  281.459)
Current total kinetic energy:            390735.2792038326 [K]
Current total Nose-Hoover energy:        133080.5751466097 [K]
Current total potential energy:          -2511364.4036320080 [K]  (avg.    -2493916.0929863034)
	Current Host-Host energy:                     0.0000000000 [K]  (avg.           0.0000000000)
	Current Host-Adsorbate energy:                0.0000000000 [K]  (avg.           0.0000000000)
	Current Host-Cation energy:                   0.0000000000 [K]  (avg.           0.0000000000)
	Current Adsorbate-Adsorbate energy:    -2511364.4036320080 [K]  (avg.    -2493916.0929863034)
	Current Cation-Cation energy:                 0.0000000000 [K]  (avg.           0.0000000000)
	Current Adsorbate-Cation energy:              0.0000000000 [K]  (avg.           0.0000000000)



Average Properties at Current cycle: 50000 out of 100000
========================================================================================

Framework surface area:                nan [m^2/g]        0.0000000000 [m^2/cm^3]       0.0000000000 [A^2]
	Cation surface area:                                nan [m^2/g]        0.0000000000 [m^2/cm^3]       0.0000000000 [A^2]
Compressibility:       0.0000000000 [-]
Henry coefficients
	Component 0: 0 [mol/kg/Pa] (Rosenbluth factor new: 0 [-])
Energy <U_gh>_1-<U_h>_0 from Widom


Current cycle: 50000 out of 100000
========================================================================================================

Time run:  50.000000 [ps]   0.050000 [ns] 
Net charge: 0 (F: 0, A: 0, C: 0)
Current Box:  24.94207   0.00000   0.00000 [A]   Average Box:  24.86834   0.00000   0.00000 [A]
               0.00000  24.94207   0.00000 [A]                  0.00000  24.86834   0.00000 [A]
               0.00000   0.00000  24.94207 [A]                  0.00000   0.00000  24.86834 [A]
Box-lengths:   24.94207  24.94207  24.94207 [A] Average:  24.86834  24.86834  24.86834 [A]
Box-angles:   90.00000  90.00000  90.00000 [degrees] Average:  90.00000  90.00000  90.00000 [degrees]
Volume: 15516.64014 [A^3] Average Volume: 15380.03980 [A^3]

Total linear momentum:       0.0000000000 [A]      -0.0000000000 [A]       0.0000000000 [A]

Current Stress: -49.60401  43.28938 -37.29639 [MPa]   Average Stress: 172.29472 -1478.60192 1367.96736 [kPa]
                 43.28938  39.70708  28.03288 [MPa]                   -1478.60192 296.22921 1426.84147 [kPa]
                -37.29639  28.03288 -138.18678 [MPa]                   1367.96736 1426.84147 -129.90758 [kPa]
Average pressure:     112.8721174480 [kPa]       1.1139611887 [atm]       1.1287211745 [bar]

Amount of molecules per component:
----------------------------------------------------------------------------------------------------------------------------------------------------
Component 0 (Tip5p), current number of integer/fractional/reaction molecules: 512/0/0 (average 512.00000/  0.00000), density: 986.33200 (average 995.20926) kg/m^3]
----------------------------------------------------------------------------------------------------------------------------------------------------
Degrees of freedom: 3069 0 3069 0
Number of Framework-atoms:      0
Number of Adsorbates:         512 (512 integer, 0 fractional, 0 reaction)
Number of Cations:              0 (0 integer, 0 fractional, 0 reaction)

Conserved energy:    -1881207.8279210932 Energy drifts:  0.0002819785           0.0001452261
Temperature:             284.413 (avg.  300.272), Translational (avg.  299.907), Rotational (avg.  300.636)
Temperature Adsorbates:  284.413 (avg.  300.272), Translational (avg.  299.907), Rotational (avg.  300.636)
Cell temperature:   70.903 (avg.  285.400)
Current total kinetic energy:            362869.6876295097 [K]
Current total Nose-Hoover energy:        136180.5743999965 [K]
Current total potential energy:          -2481427.6973462785 [K]  (avg.    -2494065.4949737657)
	Current Host-Host energy:                     0.0000000000 [K]  (avg.           0.0000000000)
	Current Host-Adsorbate energy:                0.0000000000 [K]  (avg.           0.0000000000)
	Current Host-Cation energy:                   0.0000000000 [K]  (avg.           0.0000000000)
	Current Adsorbate-Adsorbate energy:    -2481427.6973462785 [K]  (avg.    -2494065.4949737657)
	Current Cation-Cation energy:                 0.0000000000 [K]  (avg.           0.0000000000)
	Current Adsorbate-Cation energy:              0.0000000000 [K]  (avg.           0.0000000000)



Current cycle: 55000 out of 100000
========================================================================================================

Time run:  55.000000 [ps]   0.055000 [ns] 
Net charge: 0 (F: 0, A: 0, C: 0)
Current Box:  24.95903   0.00000   0.00000 [A]   Average Box:  24.87574   0.00000   0.00000 [A]
               0.00000  24.95903   0.00000 [A]                  0.00000  24.87574   0.00000 [A]
               0.00000   0.00000  24.95903 [A]                  0.00000   0.00000  24.87574 [A]
Box-lengths:   24.95903  24.95903  24.95903 [A] Average:  24.87574  24.87574  24.87574 [A]
Box-angles:   90.00000  90.00000  90.00000 [degrees] Average:  90.00000  90.00000  90.00000 [degrees]
Volume: 15548.31461 [A^3] Average Volume: 15393.81939 [A^3]

Total linear momentum:       0.0000000000 [A]      -0.0000000000 [A]       0.0000000000 [A]

Current Stress: -23.89425 -64.22493   3.33472 [MPa]   Average Stress: 1480.52166 -1223.51472  66.20175 [kPa]
                -64.22493  87.00769  63.36478 [MPa]                   -1223.51472 -330.25784 1716.81024 [kPa]
                  3.33472  63.36478 -100.60276 [MPa]                    66.20175 1716.81024 -757.92072 [kPa]
Average pressure:     130.7810338558 [kPa]       1.2907084516 [atm]       1.3078103386 [bar]

Amount of molecules per component:
----------------------------------------------------------------------------------------------------------------------------------------------------
Component 0 (Tip5p), current number of integer/fractional/reaction molecules: 512/0/0 (average 512.00000/  0.00000), density: 984.32268 (average 994.32784) kg/m^3]
----------------------------------------------------------------------------------------------------------------------------------------------------
Degrees of freedom: 3069 0 3069 0
Number of Framework-atoms:      0
Number of Adsorbates:         512 (512 integer, 0 fractional, 0 reaction)
Number of Cations:              0 (0 integer, 0 fractional, 0 reaction)

Conserved energy:    -1881293.7577561764 Energy drifts:  0.0002270533           0.0001499636
Temperature:             298.311 (avg.  300.265), Translational (avg.  299.894), Rotational (avg.  300.634)
Temperature Adsorbates:  298.311 (avg.  300.265), Translational (avg.  299.894), Rotational (avg.  300.634)
Cell temperature:  889.710 (avg.  289.085)
Current total kinetic energy:            380601.7225788765 [K]
Current total Nose-Hoover energy:        116046.7255208269 [K]
Current total potential energy:          -2478624.9072406744 [K]  (avg.    -2493549.3044915539)
	Current Host-Host energy:                     0.0000000000 [K]  (avg.           0.0000000000)
	Current Host-Adsorbate energy:                0.0000000000 [K]  (avg.           0.0000000000)
	Current Host-Cation energy:                   0.0000000000 [K]  (avg.           0.0000000000)
	Current Adsorbate-Adsorbate energy:    -2478624.9072406744 [K]  (avg.    -2493549.3044915539)
	Current Cation-Cation energy:                 0.0000000000 [K]  (avg.           0.0000000000)
	Current Adsorbate-Cation energy:              0.0000000000 [K]  (avg.           0.0000000000)



Average Properties at Current cycle: 60000 out of 100000
========================================================================================

Framework surface area:                nan [m^2/g]        0.0000000000 [m^2/cm^3]       0.0000000000 [A^2]
	Cation surface area:                                nan [m^2/g]        0.0000000000 [m^2/cm^3]       0.0000000000 [A^2]
Compressibility:       0.0000000000 [-]
Henry coefficients
	Component 0: 0 [mol/kg/Pa] (Rosenbluth factor new: 0 [-])
Energy <U_gh>_1-<U_h>_0 from Widom


Current cycle: 60000 out of 100000
========================================================================================================

Time run:  60.000000 [ps]   0.060000 [ns] 
Net charge: 0 (F: 0, A: 0, C: 0)
Current Box:  24.88941   0.00000   0.00000 [A]   Average Box:  24.87702   0.00000   0.00000 [A]
               0.00000  24.88941   0.00000 [A]                  0.00000  24.87702   0.00000 [A]
               0.00000   0.00000  24.88941 [A]                  0.00000   0.00000  24.87702 [A]
Box-lengths:   24.88941  24.88941  24.88941 [A] Average:  24.87702  24.87702  24.87702 [A]
Box-angles:   90.00000  90.00000  90.00000 [degrees] Average:  90.00000  90.00000  90.00000 [degrees]
Volume: 15418.55387 [A^3] Average Volume: 15396.18670 [A^3]

Total linear momentum:      -0.0000000000 [A]      -0.0000000000 [A]       0.0000000000 [A]

Current Stress: 118.24970   0.87840 -17.46051 [MPa]   Average Stress: 1757.53988 -1457.68629 426.29495 [kPa]
                  0.87840 -49.96771  34.02146 [MPa]                   -1457.68629 -112.87050 1135.17033 [kPa]
                -17.46051  34.02146  91.33277 [MPa]                   426.29495 1135.17033 -1301.87023 [kPa]
Average pressure:     114.2663820141 [kPa]       1.1277215101 [atm]       1.1426638201 [bar]

Amount of molecules per component:
----------------------------------------------------------------------------------------------------------------------------------------------------
Component 0 (Tip5p), current number of integer/fractional/reaction molecules: 512/0/0 (average 512.00000/  0.00000), density: 992.60662 (average 994.17191) kg/m^3]
----------------------------------------------------------------------------------------------------------------------------------------------------
Degrees of freedom: 3069 0 3069 0
Number of Framework-atoms:      0
Number of Adsorbates:         512 (512 integer, 0 fractional, 0 reaction)
Number of Cations:              0 (0 integer, 0 fractional, 0 reaction)

[...]
	Block[ 3]            0.00000 [K]
	Block[ 4]            0.00000 [K]
	------------------------------------------------------------------------------
	Average              0.00000 [K] +/-            0.00000 [K]

Average Cation Bend angle inversion energy:
===========================================
	Block[ 0]            0.00000 [K]
	Block[ 1]            0.00000 [K]
	Block[ 2]            0.00000 [K]
	Block[ 3]            0.00000 [K]
	Block[ 4]            0.00000 [K]
	------------------------------------------------------------------------------
	Average              0.00000 [K] +/-            0.00000 [K]

Average Cation Torsion energy:
==============================
	Block[ 0]            0.00000 [K]
	Block[ 1]            0.00000 [K]
	Block[ 2]            0.00000 [K]
	Block[ 3]            0.00000 [K]
	Block[ 4]            0.00000 [K]
	------------------------------------------------------------------------------
	Average              0.00000 [K] +/-            0.00000 [K]

Average Cation Improper Torsion energy:
=======================================
	Block[ 0]            0.00000 [K]
	Block[ 1]            0.00000 [K]
	Block[ 2]            0.00000 [K]
	Block[ 3]            0.00000 [K]
	Block[ 4]            0.00000 [K]
	------------------------------------------------------------------------------
	Average              0.00000 [K] +/-            0.00000 [K]

Average Cation Bond-Bond cross term energy:
=================================================
	Block[ 0]            0.00000 [K]
	Block[ 1]            0.00000 [K]
	Block[ 2]            0.00000 [K]
	Block[ 3]            0.00000 [K]
	Block[ 4]            0.00000 [K]
	------------------------------------------------------------------------------
	Average              0.00000 [K] +/-            0.00000 [K]

Average Cation Bend-Bend cross term energy:
===========================================
	Block[ 0]            0.00000 [K]
	Block[ 1]            0.00000 [K]
	Block[ 2]            0.00000 [K]
	Block[ 3]            0.00000 [K]
	Block[ 4]            0.00000 [K]
	------------------------------------------------------------------------------
	Average              0.00000 [K] +/-            0.00000 [K]

Average Cation Bond-Bend cross term energy:
==============================================
	Block[ 0]            0.00000 [K]
	Block[ 1]            0.00000 [K]
	Block[ 2]            0.00000 [K]
	Block[ 3]            0.00000 [K]
	Block[ 4]            0.00000 [K]
	------------------------------------------------------------------------------
	Average              0.00000 [K] +/-            0.00000 [K]

Average Cation Bond-Torsion cross term energy:
==============================================
	Block[ 0]            0.00000 [K]
	Block[ 1]            0.00000 [K]
	Block[ 2]            0.00000 [K]
	Block[ 3]            0.00000 [K]
	Block[ 4]            0.00000 [K]
	------------------------------------------------------------------------------
	Average              0.00000 [K] +/-            0.00000 [K]

Average Cation Bend-Torsion cross term energy:
==============================================
	Block[ 0]            0.00000 [K]
	Block[ 1]            0.00000 [K]
	Block[ 2]            0.00000 [K]
	Block[ 3]            0.00000 [K]
	Block[ 4]            0.00000 [K]
	------------------------------------------------------------------------------
	Average              0.00000 [K] +/-            0.00000 [K]

Average Cation Intra Van der Waals energy:
==========================================
	Block[ 0]            0.00000 [K]
	Block[ 1]            0.00000 [K]
	Block[ 2]            0.00000 [K]
	Block[ 3]            0.00000 [K]
	Block[ 4]            0.00000 [K]
	------------------------------------------------------------------------------
	Average              0.00000 [K] +/-            0.00000 [K]

Average Cation Intra charge-charge Coulomb energy:
====================================
	Block[ 0]            0.00000 [K]
	Block[ 1]            0.00000 [K]
	Block[ 2]            0.00000 [K]
	Block[ 3]            0.00000 [K]
	Block[ 4]            0.00000 [K]
	------------------------------------------------------------------------------
	Average              0.00000 [K] +/-            0.00000 [K]

Average Cation Intra charge-bonddipole Coulomb energy:
====================================
	Block[ 0]            0.00000 [K]
	Block[ 1]            0.00000 [K]
	Block[ 2]            0.00000 [K]
	Block[ 3]            0.00000 [K]
	Block[ 4]            0.00000 [K]
	------------------------------------------------------------------------------
	Average              0.00000 [K] +/-            0.00000 [K]

Average Cation Intra bonddipole-bonddipole Coulomb energy:
====================================
	Block[ 0]            0.00000 [K]
	Block[ 1]            0.00000 [K]
	Block[ 2]            0.00000 [K]
	Block[ 3]            0.00000 [K]
	Block[ 4]            0.00000 [K]
	------------------------------------------------------------------------------
	Average              0.00000 [K] +/-            0.00000 [K]

Average Host-Host energy:
=========================
	Block[ 0] 0.00000            Van der Waals: 0.00000            Coulomb: 0.00000            [K]
	Block[ 1] 0.00000            Van der Waals: 0.00000            Coulomb: 0.00000            [K]
	Block[ 2] 0.00000            Van der Waals: 0.00000            Coulomb: 0.00000            [K]
	Block[ 3] 0.00000            Van der Waals: 0.00000            Coulomb: 0.00000            [K]
	Block[ 4] 0.00000            Van der Waals: 0.00000            Coulomb: 0.00000            [K]
	------------------------------------------------------------------------------
	Average   0.00000            Van der Waals: 0.000000           Coulomb: 0.00000            [K]
	      +/- 0.00000                       +/- 0.000000                +/- 0.00000            [K]

Average Adsorbate-Adsorbate energy:
===================================
	Block[ 0] -2497277.16370     Van der Waals: 418685.49981       Coulomb: -2915962.66350     [K]
	Block[ 1] -2492287.18895     Van der Waals: 415045.03646       Coulomb: -2907332.22541     [K]
	Block[ 2] -2490632.77715     Van der Waals: 417293.08719       Coulomb: -2907925.86434     [K]
	Block[ 3] -2486782.04471     Van der Waals: 412636.10027       Coulomb: -2899418.14498     [K]
	Block[ 4] -2490480.21507     Van der Waals: 416078.39897       Coulomb: -2906558.61403     [K]
	------------------------------------------------------------------------------
	Average   -2491491.87792     Van der Waals: 415947.624538      Coulomb: -2907439.50245     [K]
	      +/- 4729.23583                    +/- 2851.601388             +/- 7292.23209         [K]

Average Cation-Cation energy:
=============================
	Block[ 0] 0.00000            Van der Waals: 0.00000            Coulomb: 0.00000            [K]
	Block[ 1] 0.00000            Van der Waals: 0.00000            Coulomb: 0.00000            [K]
	Block[ 2] 0.00000            Van der Waals: 0.00000            Coulomb: 0.00000            [K]
	Block[ 3] 0.00000            Van der Waals: 0.00000            Coulomb: 0.00000            [K]
	Block[ 4] 0.00000            Van der Waals: 0.00000            Coulomb: 0.00000            [K]
	------------------------------------------------------------------------------
	Average   0.00000            Van der Waals: 0.000000           Coulomb: 0.00000            [K]
	      +/- 0.00000                       +/- 0.000000                +/- 0.00000            [K]

Average Host-Adsorbate energy:
==============================
	Block[ 0] 0.00000            Van der Waals: 0.00000            Coulomb: 0.00000            [K]
	Block[ 1] 0.00000            Van der Waals: 0.00000            Coulomb: 0.00000            [K]
	Block[ 2] 0.00000            Van der Waals: 0.00000            Coulomb: 0.00000            [K]
	Block[ 3] 0.00000            Van der Waals: 0.00000            Coulomb: 0.00000            [K]
	Block[ 4] 0.00000            Van der Waals: 0.00000            Coulomb: 0.00000            [K]
	------------------------------------------------------------------------------
	Average   0.00000            Van der Waals: 0.000000           Coulomb: 0.00000            [K]
	      +/- 0.00000                       +/- 0.000000                +/- 0.00000            [K]

Average Host-Cation energy:
===========================
	Block[ 0] 0.00000            Van der Waals: 0.00000            Coulomb: 0.00000            [K]
	Block[ 1] 0.00000            Van der Waals: 0.00000            Coulomb: 0.00000            [K]
	Block[ 2] 0.00000            Van der Waals: 0.00000            Coulomb: 0.00000            [K]
	Block[ 3] 0.00000            Van der Waals: 0.00000            Coulomb: 0.00000            [K]
	Block[ 4] 0.00000            Van der Waals: 0.00000            Coulomb: 0.00000            [K]
	------------------------------------------------------------------------------
	Average   0.00000            Van der Waals: 0.000000           Coulomb: 0.00000            [K]
	      +/- 0.00000                       +/- 0.000000                +/- 0.00000            [K]

Average Adsorbate-Cation energy:
================================
	Block[ 0] 0.00000            Van der Waals: 0.00000            Coulomb: 0.00000            [K]
	Block[ 1] 0.00000            Van der Waals: 0.00000            Coulomb: 0.00000            [K]
	Block[ 2] 0.00000            Van der Waals: 0.00000            Coulomb: 0.00000            [K]
	Block[ 3] 0.00000            Van der Waals: 0.00000            Coulomb: 0.00000            [K]
	Block[ 4] 0.00000            Van der Waals: 0.00000            Coulomb: 0.00000            [K]
	------------------------------------------------------------------------------
	Average   0.00000            Van der Waals: 0.000000           Coulomb: 0.00000            [K]
	      +/- 0.00000                       +/- 0.000000                +/- 0.00000            [K]

Host polarization energy:
=======================
	Block[ 0]            0.00000 [K]
	Block[ 1]            0.00000 [K]
	Block[ 2]            0.00000 [K]
	Block[ 3]            0.00000 [K]
	Block[ 4]            0.00000 [K]
	------------------------------------------------------------------------------
	Average              0.00000 [K] +/-            0.00000 [K]

Adsorbate polarization energy:
=======================
	Block[ 0]            0.00000 [K]
	Block[ 1]            0.00000 [K]
	Block[ 2]            0.00000 [K]
	Block[ 3]            0.00000 [K]
	Block[ 4]            0.00000 [K]
	------------------------------------------------------------------------------
	Average              0.00000 [K] +/-            0.00000 [K]

Cation polarization energy:
=======================
	Block[ 0]            0.00000 [K]
	Block[ 1]            0.00000 [K]
	Block[ 2]            0.00000 [K]
	Block[ 3]            0.00000 [K]
	Block[ 4]            0.00000 [K]
	------------------------------------------------------------------------------
	Average              0.00000 [K] +/-            0.00000 [K]

Host back-polarization energy:
=======================
	Block[ 0]            0.00000 [K]
	Block[ 1]            0.00000 [K]
	Block[ 2]            0.00000 [K]
	Block[ 3]            0.00000 [K]
	Block[ 4]            0.00000 [K]
	------------------------------------------------------------------------------
	Average              0.00000 [K] +/-            0.00000 [K]

Adsorbate back-polarization energy:
=======================
	Block[ 0]            0.00000 [K]
	Block[ 1]            0.00000 [K]
	Block[ 2]            0.00000 [K]
	Block[ 3]            0.00000 [K]
	Block[ 4]            0.00000 [K]
	------------------------------------------------------------------------------
	Average              0.00000 [K] +/-            0.00000 [K]

Cation back-polarization energy:
=======================
	Block[ 0]            0.00000 [K]
	Block[ 1]            0.00000 [K]
	Block[ 2]            0.00000 [K]
	Block[ 3]            0.00000 [K]
	Block[ 4]            0.00000 [K]
	------------------------------------------------------------------------------
	Average              0.00000 [K] +/-            0.00000 [K]

Tail-correction energy:
=======================
	Block[ 0]            0.00000 [K]
	Block[ 1]            0.00000 [K]
	Block[ 2]            0.00000 [K]
	Block[ 3]            0.00000 [K]
	Block[ 4]            0.00000 [K]
	------------------------------------------------------------------------------
	Average              0.00000 [K] +/-            0.00000 [K]

Distance-constraints energy:
=======================
	Block[ 0]            0.00000 [K]
	Block[ 1]            0.00000 [K]
	Block[ 2]            0.00000 [K]
	Block[ 3]            0.00000 [K]
	Block[ 4]            0.00000 [K]
	------------------------------------------------------------------------------
	Average              0.00000 [K] +/-            0.00000 [K]

Angle-constraints energy:
=======================
	Block[ 0]            0.00000 [K]
	Block[ 1]            0.00000 [K]
	Block[ 2]            0.00000 [K]
	Block[ 3]            0.00000 [K]
	Block[ 4]            0.00000 [K]
	------------------------------------------------------------------------------
	Average              0.00000 [K] +/-            0.00000 [K]

Dihedral-constraints energy:
=======================
	Block[ 0]            0.00000 [K]
	Block[ 1]            0.00000 [K]
	Block[ 2]            0.00000 [K]
	Block[ 3]            0.00000 [K]
	Block[ 4]            0.00000 [K]
	------------------------------------------------------------------------------
	Average              0.00000 [K] +/-            0.00000 [K]

Inversion-bend constraints energy:
=======================
	Block[ 0]            0.00000 [K]
	Block[ 1]            0.00000 [K]
	Block[ 2]            0.00000 [K]
	Block[ 3]            0.00000 [K]
	Block[ 4]            0.00000 [K]
	------------------------------------------------------------------------------
	Average              0.00000 [K] +/-            0.00000 [K]

Out-of-plane-distance constraints energy:
=======================
	Block[ 0]            0.00000 [K]
	Block[ 1]            0.00000 [K]
	Block[ 2]            0.00000 [K]
	Block[ 3]            0.00000 [K]
	Block[ 4]            0.00000 [K]
	------------------------------------------------------------------------------
	Average              0.00000 [K] +/-            0.00000 [K]

Exclusion-constraints energy:
=======================
	Block[ 0]            0.00000 [K]
	Block[ 1]            0.00000 [K]
	Block[ 2]            0.00000 [K]
	Block[ 3]            0.00000 [K]
	Block[ 4]            0.00000 [K]
	------------------------------------------------------------------------------
	Average              0.00000 [K] +/-            0.00000 [K]

Total energy:
=============
	Block[ 0]     -2497277.16370 [K]
	Block[ 1]     -2492287.18895 [K]
	Block[ 2]     -2490632.77715 [K]
	Block[ 3]     -2486782.04471 [K]
	Block[ 4]     -2490480.21507 [K]
	------------------------------------------------------------------------------
	Average       -2491491.87792 [K] +/-         4729.23583 [K]

Number of molecules:
====================

Component 0 [Tip5p]
-------------------------------------------------------------
	Block[ 0] 512.00000          [-]
	Block[ 1] 512.00000          [-]
	Block[ 2] 512.00000          [-]
	Block[ 3] 512.00000          [-]
	Block[ 4] 512.00000          [-]
	------------------------------------------------------------------------------
	Average loading absolute                            512.0000000000 +/-       0.0000000000 [-]
	Average loading absolute [molecules/unit cell]      512.0000000000 +/-       0.0000000000 [-]
	Average loading absolute [mol/kg framework]                           inf +/-                nan [-]
	Average loading absolute [milligram/gram framework]                   inf +/-                nan [-]
	Average loading absolute [cm^3 (STP)/gr framework]                    inf +/-                nan [-]
	Average loading absolute [cm^3 (STP)/cm^3 framework]      1220.4712841114 +/-       0.0000000000 [-]

	Block[ 0] 512.00000          [-]
	Block[ 1] 512.00000          [-]
	Block[ 2] 512.00000          [-]
	Block[ 3] 512.00000          [-]
	Block[ 4] 512.00000          [-]
	------------------------------------------------------------------------------
	Average loading excess                            512.0000000000 +/-       0.0000000000 [-]
	Average loading excess [molecules/unit cell]      512.0000000000 +/-       0.0000000000 [-]
	Average loading excess [mol/kg framework]                             inf +/-                nan [-]
	Average loading excess [milligram/gram framework]                     inf +/-                nan [-]
	Average loading excess [cm^3 (STP)/gr framework]                      inf +/-                nan [-]
	Average loading excess [cm^3 (STP)/cm^3 framework]        1220.4712841114 +/-       0.0000000000 [-]


Average Widom Rosenbluth factor:
================================
	Block[ 0] 0 [-]
	Block[ 1] 0 [-]
	Block[ 2] 0 [-]
	Block[ 3] 0 [-]
	Block[ 4] 0 [-]
	------------------------------------------------------------------------------
	[Tip5p] Average Widom Rosenbluth-weight:   0 +/- 0.000000 [-]

Average Widom chemical potential:
=================================
	Block[ 0] 0 [-]
	Block[ 1] 0 [-]
	Block[ 2] 0 [-]
	Block[ 3] 0 [-]
	Block[ 4] 0 [-]
	------------------------------------------------------------------------------
	[Tip5p] Average chemical potential:   0 +/- 0.000000 [K]

Average Widom Ideal-gas contribution:
=====================================
	Block[ 0] 0 [-]
	Block[ 1] 0 [-]
	Block[ 2] 0 [-]
	Block[ 3] 0 [-]
	Block[ 4] 0 [-]
	------------------------------------------------------------------------------
	[Tip5p] Average Widom Ideal-gas chemical potential:   0 +/- 0.000000 [-]

Average Widom excess contribution:
==================================
	Block[ 0] 0 [-]
	Block[ 1] 0 [-]
	Block[ 2] 0 [-]
	Block[ 3] 0 [-]
	Block[ 4] 0 [-]
	------------------------------------------------------------------------------
	[Tip5p] Average Widom excess chemical potential:   0 +/- 0.000000 [-]

Average Gibbs Widom Rosenbluth factor:
======================================
	Block[ 0] 0 [-]
	Block[ 1] 0 [-]
	Block[ 2] 0 [-]
	Block[ 3] 0 [-]
	Block[ 4] 0 [-]
	------------------------------------------------------------------------------
	[Tip5p] Average Gibbs Widom Rosenbluth-weight:   0 +/- 0.000000 [-]

Average Gibbs Widom chemical potential:
=======================================
	Block[ 0] 0 [-]
	Block[ 1] 0 [-]
	Block[ 2] 0 [-]
	Block[ 3] 0 [-]
	Block[ 4] 0 [-]
	------------------------------------------------------------------------------
	[Tip5p] Average Gibbs chemical potential:   0 +/- 0.000000 [K]

Average Gibbs Widom Ideal-gas contribution:
===========================================
	Block[ 0] 0 [-]
	Block[ 1] 0 [-]
	Block[ 2] 0 [-]
	Block[ 3] 0 [-]
	Block[ 4] 0 [-]
	------------------------------------------------------------------------------
	[Tip5p] Average Gibbs Ideal-gas chemical potential:   0 +/- 0.000000 [-]

Average Gibbs Widom excess contribution:
===========================================
	Block[ 0] 0 [-]
	Block[ 1] 0 [-]
	Block[ 2] 0 [-]
	Block[ 3] 0 [-]
	Block[ 4] 0 [-]
	------------------------------------------------------------------------------
	[Tip5p] Average Gibbs excess chemical potential:   0 +/- 0.000000 [-]

Average Henry coefficient:
==========================
	Block[ 0] 0 [mol/kg/Pa]
	Block[ 1] 0 [mol/kg/Pa]
	Block[ 2] 0 [mol/kg/Pa]
	Block[ 3] 0 [mol/kg/Pa]
	Block[ 4] 0 [mol/kg/Pa]
	------------------------------------------------------------------------------
	[Tip5p] Average Henry coefficient:  0 +/- 0 [mol/kg/Pa]

Average adsorption energy <U_gh>_1-<U_h>_0 obtained from Widom-insertion:
(Note: the total heat of adsorption is dH=<U_gh>_1-<U_h>_0 - <U_g> - RT)
=========================================================================

Simulation finished,  0 warnings


Tue May 18 20:38:45 2021
Simulation finished on Tuesday, May 18.
The end time was 08:38 PM.

