Compiler and run-time data
===========================================================================
RASPA 1.9-13
Compiled as a 64-bits application
Compiler: gcc 4.2.1 Compatible Apple LLVM 6.0 (clang-600.0.54)
Compile Date = Dec  3 2014, Compile Time = 16:29:14

Tue Dec  9 12:24:02 2014
Simulation started on Tuesday, December 09.
The start time was 12:24 PM.

Cpu data:    x86_64
Cpu Model:   MacPro5,1
Host name:   server.darkwing.nl
OS release:  14.0.0
OS type:     Darwin
OS version:  14B25


Simulation
===========================================================================
Dimensions: 3
Random number seed: 1418124242
RASPA directory set to: /Users/dubbelda/RASPA/simulations/
String appended to output-files: 
Number of cycles: 100000
Number of initializing cycles: 0
Number of equilibration cycles: 10000
Print every: 5000
Rectangular boundary condition applied
Timestep: 0.001000
Initialization Ensemble: NPT (constant number of particles N, constant average pressure P, constant average temperature T)
Production run ensemble: NPT (constant number of particles N, constant average pressure P, constant average temperature T)
	Degrees of freedom:                        3072
	Translational Degrees of freedom:          1536
	Rotational Degrees of freedom:             1536
	Degrees of freedom Framework:              0


Mutual consistent basic set of units:
======================================
Unit of temperature: Kelvin
Unit of length:      1e-10 [m]
Unit of time:        1e-12 [s]
Unit of mass:        1.66054e-27 [kg]
Unit of charge:      1.60218e-19 [C/particle]

Derived units and their conversion factors:
===========================================
Unit of energy:              1.66054e-23 [J]
Unit of force:               1.66054e-13 [N]
Unit of pressure:            1.66054e+07 [Pa]
Unit of velocity:            100 [m/s]
Unit of acceleration:        1e-08 [m^2/s]
Unit of diffusion:           1e-08 [m^2/s]
Unit of dipole moment:       1.60218e-29 [C.m]
Unit of electric potential:  0.000103643 [V]
Unit of electric field:      1.03643e+06 [V]
Unit of polarizability:      1.54587e-35 [-]
Unit of Coulomb potential:   167101.0800066561  [K]
Unit of dielectric constant: 0.0000154587       [s^2 C^2/(kg m^3)]
Unit of wave vectors:        5.3088374589       [cm^1]
Boltzmann constant:          0.8314464919       [-]

Internal conversion factors:
===========================================
Energy to Kelvin:                                    1.2027242847
FH correction factor                                 2.0211930949
Heat capacity conversion factor:                    10.0000088723
From Debye to internal units:                        4.8032067991
Isothermal compressibility conversion factor:        0.0000000602

Energy conversion factors:
===========================================
From mdyne/A to kcal/mol/A^2:           143.933
From mdyne/A to kj/mol/A^2:             602.214
From mdyne/A to K/A^2:                  72429.7
From mdyne A/rad^2 to kcal/mol/deg^2:   0.0438444


Properties computed
===========================================================================
Movies: no
Radial Distribution Function: no
Number of molecules GCMC histogram: no
Histogram of the molecule positions: no
Free energy profiles: no
Pore Size Distribution Function: no
End-to-end distance: no
Histogram of the energy of the system: no
Compute thermodynamic factors: no
Framework spacing histograms: no
Residence times histograms: no
Distance histograms: no
Bend Angle histograms: no
Dihedral angle histograms: no
Angle between planes histograms: no
Molecule properties: no
Infra-red spectra: no
Mean-squared displacement using modified order-N algorithm: yes
	msd is sampled every 1 cycles
	msd is written to file every 5000 cycles
	the (initial) maximum number of blocks: 25
	the number of elements per block: 25
	the msd's are computed per component
Velocity-autocorrelation function modified order-N algorithm: no
Rotational velocity-autocorrelation function modified order-N algorithm: no
Molecular orientation-autocorrelation function modified order-N algorithm: no
Bond orientation-autocorrelation function modified order-N algorithm: no
Mean-squared displacement (conventional algorithm): no
Velocity-autocorrelation function (conventional algorithm): no
3D density grid for adsorbates: no
Compute cation an/or adsorption sites: no
dcTST snapshots: no
Compute pressure and stress: no


VTK
===========================================================================
VTK fractional-range position framework atoms: [-0.001000,1.001000] [-0.001000,1.001000] [-0.001000,1.001000]
VTK fractional-range position framework bonds: [-0.151000,1.151000] [-0.151000,1.151000] [-0.151000,1.151000]
VTK fractional-range com-position adsorbate molecules: [-0.101000,1.101000] [-0.101000,1.101000] [-0.101000,1.101000]
VTK fractional-range com-position cation molecules: [-0.101000,1.101000] [-0.101000,1.101000] [-0.101000,1.101000]
	3D free energy grid made for the full simulation-cell


Thermo/Baro-stat NHC parameters
===========================================================================
External temperature: 300 [K]
Beta: 0.00400908 [energy unit]
External Pressure: 100000 [Pa]


Thermostat chain-length: 3
Timescale parameter for thermostat: 0.150000 [ps]
Barostat chain-length:   3
Timescale parameter for barostat:   0.150000 [ps]

Number of Yoshida-Suzuki decomposition steps: 5
Number of respa steps: 5


Method and settings for electrostatics
===============================================================================
Dielectric constant of the medium : 1.000000
Charge from charge-equilibration: no
Ewald summation is used (exact solution of a periodic system)
Relative precision                : 1e-06
Alpha convergence parameter       : 0.265058
kvec (x,y,z)                      : 7 7 7


CFC-RXMC parameters
===========================================================================
Number of reactions: 0


Rattle parameters
===========================================================================
Distance constraint type: r^2-r^2_0
Bend angle constraint type: theta-theta_0
Dihedral angle constraint type: phi-phi_0
Inversion-bend angle constraint type: chi-chi_0
Out-of-plane distance constraint type: r-r_0


Spectra parameters
===========================================================================
Compute normal modes: no


Minimization parameters
===========================================================================
Generalized coordinates are: Cartesian center-of-mass, elements of the orientational matrix p1,p2,p3 and strain
Potential derivatives are evaluated: analytically
Translation of the system is removed from the generalized Hessian: no
Rotation of the system is removed from the generalized Hessian: no
Maximum step-length: 0.3
Convergence factor: 1
Maximum number of minimization steps: 10000
Use gradients in the line-minimizations: yes
RMS gradient tolerance: 1e-06
Maximum gradient tolerance: 1e-06

Distance constraints: 0
Angle constraints: 0
Dihedral constraints: 0

Improper dihedral constraints: 0

Inversion-bend constraints: 0

Out-of-plane constraints: 0

Harmonic distance constraints: 0
Harmonic angle constraints: 0
Harmonic dihedral constraints: 0

Dihedral mid-point measurements: 0

All framework atoms are fixed

Fixed adsorbate atoms:  
Fixed adsorbate groups (center-of-mass):  
Fixed adsorbate groups (orientation):  

Fixed cation atoms:  
Fixed cation groups (center-of-mass):  
Fixed cation groups (orientation):  


dcTST parameters
===========================================================================
Free energy profiles computed: no
Free energy profiles written every 5000 cycles
Free energy mapping: mapped to a,b,c-coordinates
BarrierPosition:       0.0000000000       0.0000000000       0.0000000000
BarrierNormal:         0.0000000000       0.0000000000       0.0000000000
Start with a molecule on top of the barrier: no
Maximum distance to barrier (e.g. distance to minumum free energy):       0.0000000000 [A]
Maximum trajectory time:      10.0000000000 [ps]
Each configuration is used with 5 different initial velocities


Cbmc parameters
===========================================================================
Biasing method: using only the VDW part
Number of trial positions:                                       10
Number of trial positions (reinsertion):                         10
Number of trial positions (partial reinsertion):                 10
Number of trial positions (identity-change):                     10
Number of trial positions (Gibbs particle transfer):             10
Number of trial positions (insertion/deletion):                  10
Number of trial positions (Widom insertion):                     10
Number of trial positions coupled Torsion-selection:             100
Number of trial positions first bead:                            10
Number of trial positions first bead (reinsertion):              10
Number of trial positions first bead (partial reinsertion):      10
Number of trial positions first bead (identity-change):          10
Number of trial positions first bead (Gibbs particle transfer):  10
Number of trial positions first bead (insertion/deletion):       10
Number of trial positions first bead (Widom insertion):          10
Number of trial moves per open bead:                             150
Target acceptance ratio small-mc scheme:                         0.400000
Energy overlap criteria:                                         1e+07
Minimal Rosenbluth factor:                                       1e-150


Pseudo atoms: 4
===========================================================================
Pseudo Atom[   0] Name UNIT     Oxidation:          Element: H    pdb-name: H    Scat. Types:   1   1 Mass=1.000000000  B-factor:0.000   
                 Charge=1.000000000          Polarization=0.000000000  [A^3] (considered a charged atom and no polarization)  Interactions: yes
                 Anisotropic factor:    0.000 [-] (Absolute), Radius:    1.000 [A], Framework-atom:  no
Pseudo Atom[   1] Name Ow       Oxidation: +0       Element: O    pdb-name: O    Scat. Types:   9   8 Mass=15.999600000 B-factor:1.000   
                 Charge=0.000000000          Polarization=0.000000000  [A^3] (considered a chargeless atom and no polarization)  Interactions: yes
                 Anisotropic factor:    0.000 [-] (Absolute), Radius:    0.500 [A], Framework-atom:  no
Pseudo Atom[   2] Name Hw       Oxidation: +0       Element: H    pdb-name: H    Scat. Types:   1   1 Mass=1.000800000  B-factor:1.000   
                 Charge=0.241000000          Polarization=0.000000000  [A^3] (considered a charged atom and no polarization)  Interactions: yes
                 Anisotropic factor:    0.000 [-] (Absolute), Radius:    1.000 [A], Framework-atom:  no
Pseudo Atom[   3] Name Lw       Oxidation: +0       Element: -    pdb-name: L    Scat. Types:   0   3 Mass=0.000000000  B-factor:1.000   
                 Charge=-0.241000000         Polarization=0.000000000  [A^3] (considered a charged atom and no polarization)  Interactions: yes
                 Anisotropic factor:    0.000 [-] (Absolute), Radius:    1.000 [A], Framework-atom:  no


Forcefield: Tip5p-Ew
===========================================================================
Minimal distance: 1
CutOff VDW : 10.000000 (100.000000)
CutOff VDW switching on: 9.000000 (81.000000)
CutOff charge-charge : 12.000000 (144.000000)
CutOff charge-charge switching on: 7.800000 (60.840000)
CutOff charge-bonddipole : 12.000000 (144.000000)
CutOff charge-bondipole switching on: 8.400000 (70.560000)
CutOff bonddipole-bonddipole : 12.000000 (144.000000)
CutOff bonddipole-bondipole switching on: 9.000000 (81.000000)
Polarization is neglected
All potentials are shifted to zero at the Cutoff

General mixing rule: Jorgensen mixing rules are used FIRST for cross terms
0 cross terms are overwritten using the individual mixing rules from the file 'force_field_mixing_rules.def'
and then 0 terms are overwritten using the specific interactions from the file 'force_field.def'

The force field and all the interactions:
     Ow -      Ow [LENNARD_JONES] p_0/k_B:  89.63300 [K], p_1: 3.09700 [A], shift/k_B:  -0.31607619 [K], tailcorrection: no
     Ow -      Hw [ZERO_POTENTIAL]
     Ow -      Lw [ZERO_POTENTIAL]
     Hw -      Hw [ZERO_POTENTIAL]
     Hw -      Lw [ZERO_POTENTIAL]
     Lw -      Lw [ZERO_POTENTIAL]


MoleculeDefinitions:
===========================================================================
Component 0 [Tip5p] (Adsorbate molecule)

	MoleculeDefinitions: Water
	Component contains (at least some) atoms which are charged
	Component contains no atoms with point dipoles (polarization)
	Component has a net charge of 0.000000

	Ideal chain Rosenbluth weight: 1
	Ideal chain total energy: 0.000000

	Critical temparure [K]: 304.128200
	Critical pressure [Pa]: 7377300.000000
	Acentric factor [-]: 0.223940

	RXMC partition factor [-]: 0.000000

	Vapour=stable, Liquid=metastable

	MolFraction:           1.0000000000 [-]
	Compressibility:       0.0000000000 [-]

	Density of the bulk fluid phase:       0.0000000000 [kg/m^3]


	Amount of excess molecules:       0.0000000000 [-]

	Conversion factor molecules/unit cell -> mol/kg:                inf [-]
	Conversion factor molecules/unit cell -> gr/gr:                inf [-]
	Conversion factor molecules/unit cell -> cm^3 STP/gr:                inf [-]
	Conversion factor molecules/unit cell -> cm^3 STP/cm^3:       2.4312955074 [-]
	Conversion factor mol/kg -> cm^3 STP/gr:      22.4139757476 [-]
	Conversion factor mol/kg -> cm^3 STP/cm^3:       0.0000000000 [-]

	Partial pressure: -16605402.00000000000000 [Pa]
	                    -124540.51499999999942 [Torr]
	                       -166.05402000000001 [bar]
	                       -163.88257586972614 [atm]

	Fugacity coefficient:      -1.0000000000 [-]

	Partial fugacity:  16605402.00000000000000 [Pa]
	                     124540.51499999999942 [Torr]
	                        166.05402000000001 [bar]
	                        163.88257586972614 [atm]

	Molecule contains 5 number of atoms
		atom:    0  is of type:    1 [        Ow] (group: 0)
		atom:    1  is of type:    2 [        Hw] (group: 0)
		atom:    2  is of type:    2 [        Hw] (group: 0)
		atom:    3  is of type:    3 [        Lw] (group: 0)
		atom:    4  is of type:    3 [        Lw] (group: 0)

	Molecule contains 0 chirality centers

	Molecule contains 1 number of groups

		group: 0 containing: 5 elements
		-------------------------------------------------
		the group is rigid and nonlinear
		Mass: 18.001200 [a.u.]
		Mass: 1.952632 [kg/m^3]

		Rotational Degrees of freedom: 3
		Diagonalized inertia vector:       1.7575330830
		                                   1.1468643540
		                                   0.6106687291
		number of atoms: 5
			element: 0 atom: 0 [        Ow] Charge:  0.000000 Anisotropy: 0.000000 Position:  0.000000  0.065146  0.000000 Connectivity: 4 (1 2 3 4 )
			element: 1 atom: 1 [        Hw] Charge:  0.241000 Anisotropy: 0.000000 Position:  0.000000 -0.520737 -0.756950 Connectivity: 1 (0 )
			element: 2 atom: 2 [        Hw] Charge:  0.241000 Anisotropy: 0.000000 Position:  0.000000 -0.520737  0.756950 Connectivity: 1 (0 )
			element: 3 atom: 3 [        Lw] Charge: -0.241000 Anisotropy: 0.000000 Position: -0.571543  0.469297  0.000000 Connectivity: 1 (0 )
			element: 4 atom: 4 [        Lw] Charge: -0.241000 Anisotropy: 0.000000 Position:  0.571543  0.469297  0.000000 Connectivity: 1 (0 )
		number of permanent dipoles: 0
		number of polarizabilities: 0

		Dipole:           2.2920719009 [D]
		Quadrupole:      -1.4784799135      -0.1672211827       1.6457010962 [D Angstrom]
		Quadrupole tensor [D Angstrom]
				      -1.4784799135       0.0000000000       0.0000000000
				       0.0000000000      -0.1672211827       0.0000000000
				       0.0000000000       0.0000000000       1.6457010962

	Starting bead for growth               : 0

	Degrees of freedom                     : 0
	Translational degrees of freedom       : 0
	Rotational degrees of freedom          : 0
	Vibrational degrees of freedom         : 0
	Constraint degrees of freedom          : 0

	Number of atoms                        : 5

	Number of constraint bonds             : 0
	Number of constraint bends             : 0
	Number of constraint inversion bends   : 0
	Number of constraint torsions          : 0
	Number of constraint improper torsions : 0
	Number of constraint improper torsions : 0

	Number of bonds                        : 4
	Number of Urey-Bradleys                : 0
	Number of bends                        : 0
	Number of inversion bends              : 0
	Number of torsions                     : 0
	Number of improper torsions            : 0
	Number of improper torsions            : 0

	Number of bond/bond cross terms        : 0
	Number of bond/bend cross terms        : 0
	Number of bend/bend cross terms        : 0
	Number of stretch/torsion cross terms  : 0
	Number of bend/torsion cross terms     : 0

	Number of charges                      : 4
	Number of bond-dipoles                 : 0

	Number of intra Van der Waals                             : 0
	Number of intra charge-charge Coulomb                     : 0
	Number of intra charge-bonddipole Coulomb                 : 0
	Number of intra bonddipole-bonddipole Coulomb             : 0

	Number of excluded intra charge-charge Coulomb                     : 6
	Number of excluded intra charge-bonddipole Coulomb                 : 0
	Number of excluded intra bonddipole-bonddipole Coulomb             : 0

	Number of cbmc-config moves                               : 0

	Particle Moves:             
		ProbabilityTranslationMove:                  33.333333
			TranslationDirection:      XYZ
		Percentage of random translation moves:            0.000000
		Percentage of rotation moves:                      33.333333
		Percentage of random rotation moves:               0.000000
		Percentage of partial reinsertion moves:           0.000000
		Percentage of reinsertion moves:                   33.333333
		Percentage of reinsertion-in-place moves:          0.000000
		Percentage of reinsertion-in-plane moves:          0.000000
		Percentage of identity-change moves:               0.000000
		Percentage of swap (insert/delete) moves:          0.000000
		Percentage of CF swap lambda moves:                0.000000
		Percentage of CB/CFMC swap lambda moves:           0.000000
		Percentage of Widom insertion moves:               0.000000
		Percentage of surface-area moves:                  0.000000
		Percentage of Gibbs particle-transfer moves:       0.000000
		Percentage of Gibbs identity-change moves:         0.000000
		Percentage of CF Gibbs lambda-transfer moves:      0.000000
		Percentage of CB/CFMC Gibbs lambda-transfer moves: 0.000000

	System Moves:
		Percentage of parallel-tempering moves:            0.000000
		Percentage of hyper-parallel-tempering moves:      0.000000
		Percentage of parallel-mol-fraction moves:         0.000000
			   Component A: 0 B: 1
		Percentage of chiral inversion moves:              0.000000
		Percentage of Hybrid-NVE moves:                    0.000000
		Percentage of Hybrid-NPH moves:                    0.000000
		Percentage of Hybrid-NPHPR moves:                  0.000000
		Percentage of volume-change moves:                 0.000000
		Percentage of box-shape-change moves:              0.000000
		Percentage of Gibbs volume-change moves:           0.000000
		Percentage of framework-change moves:              0.000000
		Percentage of framework-shift moves:               0.000000
		Percentage of reactive MC moves:                   0.000000

	Moves are restricted: No
	No biased sampling used for this component

	Number of Bonds: 4
	--------------------------------------------
	Bond interaction 0: A=0 B=1 Type:RIGID_BOND
		r_0=0.9572000000       [A]
	Bond interaction 1: A=0 B=2 Type:RIGID_BOND
		r_0=0.9572000000       [A]
	Bond interaction 2: A=0 B=3 Type:RIGID_BOND
		r_0=0.7000000000       [A]
	Bond interaction 3: A=0 B=4 Type:RIGID_BOND
		r_0=0.7000000000       [A]


	number of identity-config changes: 1
	--------------------------------------------
	nr fixed 1: 0 

	Number of pockets blocked in a unitcell: 0
		Pockets are NOT blocked for this component



System Properties
===========================================================================
Unit cell size: 24.830000 24.830000 24.830000
Cell angles (radians)  alpha: 1.570796 beta: 1.570796 gamma: 1.570796
Cell angles (degrees)  alpha: 90.000000 beta: 90.000000 gamma: 90.000000
Number of unitcells [a]: 1
Number of unitcells [b]: 1
Number of unitcells [c]: 1

RECTANGULAR Boundary conditions: alpha=beta=gamma=90 degrees

Cartesian axis A is collinear with crystallographic axis a
Cartesian axis B is collinear with (axb)xA
Cartesian axis C is collinear with (axb)

lengths of cell vectors:
 24.83000  24.83000  24.83000
cosines of cell angles:
  0.00000   0.00000   0.00000
perpendicular cell widths:
 24.83000  24.83000  24.83000
volume of the cell: 15308.412586999997 (A^3)

Orthogonalization matrix Box
Transforms fractional coordinates abc into orthonormal Cartesian coordinates xyz
Deorthogonalization matrix InverseBox
Transforms orthonormal Cartesian coordinates xyz into fractional coordinates xyz

Box[0]:
	   24.830000000000     0.000000000000     0.000000000000
	    0.000000000000    24.830000000000     0.000000000000
	    0.000000000000     0.000000000000    24.830000000000

Inverse box[0]:
	    0.040273862263     0.000000000000     0.000000000000
	    0.000000000000     0.040273862263     0.000000000000
	    0.000000000000     0.000000000000     0.040273862263


Unitcell box[0]:
	   24.830000000000     0.000000000000     0.000000000000
	    0.000000000000    24.830000000000     0.000000000000
	    0.000000000000     0.000000000000    24.830000000000

Unitcell inverse box[0]:
	    0.040273862263    -0.000000000000    -0.000000000000
	    0.000000000000     0.040273862263    -0.000000000000
	    0.000000000000     0.000000000000     0.040273862263

lengths of cell vectors (inverse box):
  0.04027   0.04027   0.04027
cosines of cell angles (inverse box):
 -0.00000  -0.00000  -0.00000
perpendicular cell widths (inverse):
  0.04027   0.04027   0.04027
volume of the cell: 15308.412586999997 (A^3)

No replicas are used
Framework is simulated as 'rigid'
Number of framework atoms: 0
Number of framework atoms in the unit cell: 0
Framework Mass:     0.000000000000 [g/mol]
Framework Density:     0.000000000000 [kg/m^3]                inf [cm^3/g]
Helium void fraction:    0.00000000
Available pore volume:    0.00000000 [A^3]           nan [cm^3/g]
Conversion factor from molecule/unit cell -> kmol/m^3: 0.108472, kmol/m^3 accesible pore volume: inf

Number Of Frameworks (per system): 0
----------------------------------------------------------------------

Current Atom Status
===========================================================================
Number of framework atoms        : 0
Number of cations molecules      : 0
Number of adsorbate molecules    : 512
Component    0 :  512 molecules
Pseudo Atoms    0 [    UNIT]:    0 atoms
Pseudo Atoms    1 [      Ow]:  512 atoms
Pseudo Atoms    2 [      Hw]: 1024 atoms
Pseudo Atoms    3 [      Lw]: 1024 atoms


Current (initial full energy) Energy Status
===========================================================================

Internal energy:
Host stretch energy:                                            0.00000000
Host UreyBradley energy:                                        0.00000000
Host bend energy:                                               0.00000000
Host inversion-bend energy:                                     0.00000000
Host torsion energy:                                            0.00000000
Host improper torsion energy:                                   0.00000000
Host out-of-plane energy:                                       0.00000000
Host stretch/stretch energy:                                    0.00000000
Host bend/bend energy:                                          0.00000000
Host stretch/bend energy:                                       0.00000000
Host stretch/torsion energy:                                    0.00000000
Host bend/torsion energy:                                       0.00000000

Adsorbate stretch energy:                                       0.00000000
Adsorbate UreyBradley energy:                                   0.00000000
Adsorbate bend energy:                                          0.00000000
Adsorbate inversion-bend energy:                                0.00000000
Adsorbate torsion energy:                                       0.00000000
Adsorbate improper torsion energy:                              0.00000000
Adsorbate out-of-plane energy:                                  0.00000000
Adsorbate stretch/stretch energy:                               0.00000000
Adsorbate bend/bend energy:                                     0.00000000
Adsorbate stretch/bend energy:                                  0.00000000
Adsorbate stretch/torsion energy:                               0.00000000
Adsorbate bend/torsion energy:                                  0.00000000
Adsorbate intra VDW energy:                                     0.00000000
Adsorbate intra charge-charge Coulomb energy:                   0.00000000
Adsorbate intra charge-bonddipole Coulomb energy:               0.00000000
Adsorbate intra bonddipole-bonddipole Coulomb energy:           0.00000000

Cation stretch energy:                                          0.00000000
Cation UreyBradley energy:                                      0.00000000
Cation bend energy:                                             0.00000000
Cation inversion-bend energy:                                   0.00000000
Cation torsion energy:                                          0.00000000
Cation improper torsion energy:                                 0.00000000
Cation out-of-plane energy:                                     0.00000000
Cation stretch/stretch energy:                                  0.00000000
Cation bend/bend energy:                                        0.00000000
Cation stretch/bend energy:                                     0.00000000
Cation stretch/torsion energy:                                  0.00000000
Cation bend/torsion energy:                                     0.00000000
Cation intra VDW energy:                                        0.00000000
Cation intra charge-charge Coulomb energy:                      0.00000000
Cation intra charge-bonddipole Coulomb energy:                  0.00000000
Cation intra bonddipole-bonddipole Coulomb energy:              0.00000000

Host/Host energy:                                             0.00000000
	Host/Host VDW energy:                                         0.00000000
	Host/Host Coulomb energy:                                     0.00000000
	Host/Host charge-charge Real energy:                          0.00000000
	Host/Host charge-charge Fourier energy:                       0.00000000
	Host/Host charge-bonddipole Real energy:                      0.00000000
	Host/Host charge-bonddipole Fourier energy:                   0.00000000
	Host/Host bondipole-bonddipole Real energy:                   0.00000000
	Host/Host bondipole-bonddipole Fourier energy:                0.00000000

Host/Adsorbate energy:                                        0.00000000
	Host/Adsorbate VDW energy:                                    0.00000000
	Host/Adsorbate Coulomb energy:                                0.00000000
	Host/Adsorbate charge-charge Real energy:                     0.00000000
	Host/Adsorbate charge-charge Fourier energy:                  0.00000000
	Host/Adsorbate charge-bonddipole Real energy:                 0.00000000
	Host/Adsorbate charge-bonddipole Fourier energy:              0.00000000
	Host/Adsorbate bondipole-bonddipole Real energy:              0.00000000
	Host/Adsorbate bondipole-bonddipole Fourier energy:           0.00000000

Host/Cation energy:                                           0.00000000
	Host/Cation VDW energy:                                       0.00000000
	Host/Cation Coulomb energy:                                   0.00000000
	Host/Cation charge-charge Real energy:                        0.00000000
	Host/Cation charge-charge Fourier energy:                     0.00000000
	Host/Cation charge-bonddipole Real energy:                    0.00000000
	Host/Cation charge-bonddipole Fourier energy:                 0.00000000
	Host/Cation bondipole-bonddipole Real energy:                 0.00000000
	Host/Cation bondipole-bonddipole Fourier energy:              0.00000000

Adsorbate/Adsorbate energy:                                 -2496491.01285375
	Adsorbate/Adsorbate VDW energy:                               430841.42972676
	Adsorbate/Adsorbate Coulomb energy:                         -2927332.44258051
	Adsorbate/Adsorbate charge-charge Real energy:              -2804025.97711409
	Adsorbate/Adsorbate charge-charge Fourier energy:            -123306.46546642
	Adsorbate/Adsorbate charge-bonddipole Real energy:                 0.00000000
	Adsorbate/Adsorbate charge-bonddipole Fourier energy:              0.00000000
	Adsorbate/Adsorbate bondipole-bonddipole Real energy:              0.00000000
	Adsorbate/Adsorbate bondipole-bonddipole Fourier energy:           0.00000000

Adsorbate/Cation energy:                                           0.00000000
	Adsorbate/Cation VDW energy:                                       0.00000000
	Adsorbate/Cation Coulomb energy:                                   0.00000000
	Adsorbate/Cation charge-charge Real energy:                        0.00000000
	Adsorbate/Cation charge-charge Fourier energy:                     0.00000000
	Adsorbate/Cation charge-bonddipole Real energy:                    0.00000000
	Adsorbate/Cation charge-bonddipole Fourier energy:                 0.00000000
	Adsorbate/Cation bondipole-bonddipole Real energy:                 0.00000000
	Adsorbate/Cation bondipole-bonddipole Fourier energy:              0.00000000

Cation/Cation energy:                                           0.00000000
	Cation/Cation VDW energy:                                       0.00000000
	Cation/Cation Coulomb energy:                                   0.00000000
	Cation/Cation charge-charge Real energy:                        0.00000000
	Cation/Cation charge-charge Fourier energy:                     0.00000000
	Cation/Cation charge-bonddipole Real energy:                    0.00000000
	Cation/Cation charge-bonddipole Fourier energy:                 0.00000000
	Cation/Cation bondipole-bonddipole Real energy:                 0.00000000
	Cation/Cation bondipole-bonddipole Fourier energy:              0.00000000

Polarization energy:
	Host polarization energy:                                     0.00000000
	Adsorbate polarization energy:                                0.00000000
	Cation polarization energy:                                   0.00000000
	Host back-polarization energy:                                     0.00000000
	Adsorbate back-polarization energy:                                0.00000000
	Cation back-polarization energy:                                   0.00000000

Tail-correction energy:                                       0.00000000

Distance constraints energy:                                  0.00000000
Angle constraints energy:                                     0.00000000
Dihedral constraints energy:                                  0.00000000
Inversion-bend constraints energy:                            0.00000000
Out-of-plane distance constraints energy:                     0.00000000
Exclusion constraints energy:                                 0.00000000

===================================================================
Total energy: -2496491.012853752356
	Total Van der Waals: 430841.429727
	Total Coulomb: -2927332.442581

	Total Polarization: 0.000000







+++++++++++++++++++++++++++++++++++++++++++++++++++++++++++++++++++++++++
Starting simulation
+++++++++++++++++++++++++++++++++++++++++++++++++++++++++++++++++++++++++

[Equilibration] Current cycle: 0 out of 10000
========================================================================================================

Net charge: 0 (F: 0, A: 0, C: 0)
Current Box:  24.83000   0.00000   0.00000 [A]
               0.00000  24.83000   0.00000 [A]
               0.00000   0.00000  24.83000 [A]
Box-lengths:  24.83000  24.83000  24.83000 Box-angles:   90.00000  90.00000  90.00000 [degrees]
Volume: 15308.41259 [A^3]

Total linear momentum:      -0.0000000000 [A]      -0.0000000000 [A]      -0.0000000000 [A]

Amount of molecules per component:
----------------------------------------------------------------------------------------------------------------------------------------------------
Component 0 (Tip5p), current number of integer/fractional/reaction molecules: 512/0/0, density: 999.74825 [kg/m^3]
----------------------------------------------------------------------------------------------------------------------------------------------------
Degrees of freedom: 3069 0 3069 0
Number of Framework-atoms:      0
Number of Adsorbates:         512 (512 integer, 0 fractional, 0 reaction)
Number of Cations:              0 (0 integer, 0 fractional, 0 reaction)

Conserved energy:    -1894924.4677302793 Energy drifts:  0.0000000000           0.0000000000
Temperature:                    302.5149597705
Temperature Adsorbates:         302.5149597705
Cell temperature:  1708.217
Current total kinetic energy:            385965.1156575716 [K]
Current total Nose-Hoover energy:        114204.8341626041 [K]
Current total potential energy:          -2496491.0128525770 [K]
	Current Host-Host energy:                     0.0000000000 [K]
	Current Host-Adsorbate energy:                0.0000000000 [K]
	Current Host-Cation energy:                   0.0000000000 [K]
	Current Adsorbate-Adsorbate energy:    -2496491.0128525770 [K]
	Current Cation-Cation energy:                 0.0000000000 [K]
	Current Adsorbate-Cation energy:              0.0000000000 [K]



[Equilibration] Current cycle: 5000 out of 10000
========================================================================================================

Net charge: 0 (F: 0, A: 0, C: 0)
Current Box:  24.86869   0.00000   0.00000 [A]
               0.00000  24.86869   0.00000 [A]
               0.00000   0.00000  24.86869 [A]
Box-lengths:  24.86869  24.86869  24.86869 Box-angles:   90.00000  90.00000  90.00000 [degrees]
Volume: 15380.08127 [A^3]

Total linear momentum:      -0.0000000000 [A]       0.0000000000 [A]       0.0000000000 [A]

Amount of molecules per component:
----------------------------------------------------------------------------------------------------------------------------------------------------
Component 0 (Tip5p), current number of integer/fractional/reaction molecules: 512/0/0, density: 995.08959 [kg/m^3]
----------------------------------------------------------------------------------------------------------------------------------------------------
Degrees of freedom: 3069 0 3069 0
Number of Framework-atoms:      0
Number of Adsorbates:         512 (512 integer, 0 fractional, 0 reaction)
Number of Cations:              0 (0 integer, 0 fractional, 0 reaction)

Conserved energy:    -1894818.0431714382 Energy drifts:  0.0000675486           0.0000464546
Temperature:                    297.9919543835
Temperature Adsorbates:         297.9919543835
Cell temperature:  953.167
Current total kinetic energy:            380194.4182394673 [K]
Current total Nose-Hoover energy:         98306.3230926469 [K]
Current total potential energy:          -2470322.5050150729 [K]
	Current Host-Host energy:                     0.0000000000 [K]
	Current Host-Adsorbate energy:                0.0000000000 [K]
	Current Host-Cation energy:                   0.0000000000 [K]
	Current Adsorbate-Adsorbate energy:    -2470322.5050150729 [K]
	Current Cation-Cation energy:                 0.0000000000 [K]
	Current Adsorbate-Cation energy:              0.0000000000 [K]



Average Properties at Current cycle: 0 out of 100000
========================================================================================

Framework surface area:                nan [m^2/g]        0.0000000000 [m^2/cm^3]       0.0000000000 [A^2]
	Cation surface area:                                nan [m^2/g]        0.0000000000 [m^2/cm^3]       0.0000000000 [A^2]
Compressibility:       0.0000000000 [-]
Henry coefficients
	Component 0: 0 [mol/kg/Pa] (Rosenbluth factor new: 0 [-])
Energy <U_gh>_1-<U_h>_0 from Widom


Current cycle: 0 out of 100000
========================================================================================================

Time run:   0.000000 [ps]   0.000000 [ns] 
Net charge: 0 (F: 0, A: 0, C: 0)
Current Box:  24.93192   0.00000   0.00000 [A]   Average Box:  24.93192   0.00000   0.00000 [A]
               0.00000  24.93192   0.00000 [A]                  0.00000  24.93192   0.00000 [A]
               0.00000   0.00000  24.93192 [A]                  0.00000   0.00000  24.93192 [A]
Box-lengths:   24.93192  24.93192  24.93192 [A] Average:  24.93192  24.93192  24.93192 [A]
Box-angles:   90.00000  90.00000  90.00000 [degrees] Average:  90.00000  90.00000  90.00000 [degrees]
Volume: 15497.69026 [A^3] Average Volume: 15497.69026 [A^3]

Total linear momentum:      -0.0000000000 [A]       0.0000000000 [A]       0.0000000000 [A]

Current Stress: -31.86194  54.20127  19.53531 [MPa]   Average Stress: -31861.94350 54201.26554 19535.30775 [kPa]
                 54.20127 -22.77751 -56.18712 [MPa]                   54201.26554 -22777.50514 -56187.12471 [kPa]
                 19.53531 -56.18712  40.09215 [MPa]                   19535.30775 -56187.12471 40092.14638 [kPa]
Average pressure:   -4849.1007544071 [kPa]     -47.8569035717 [atm]     -48.4910075441 [bar]

Amount of molecules per component:
----------------------------------------------------------------------------------------------------------------------------------------------------
Component 0 (Tip5p), current number of integer/fractional/reaction molecules: 512/0/0 (average 512.00000), density: 987.53804 (average 987.53804) kg/m^3]
----------------------------------------------------------------------------------------------------------------------------------------------------
Degrees of freedom: 3069 0 3069 0
Number of Framework-atoms:      0
Number of Adsorbates:         512 (512 integer, 0 fractional, 0 reaction)
Number of Cations:              0 (0 integer, 0 fractional, 0 reaction)

Conserved energy:    -1894769.9090300500 Energy drifts:  0.0000000000           0.0000000000
Temperature:             308.678 (avg.  308.678), Translational (avg.  314.812), Rotational (avg.  302.557)
Temperature Adsorbates:  308.678 (avg.  308.678), Translational (avg.  314.812), Rotational (avg.  302.557)
Cell temperature:    1.476 (avg.    1.476)
Current total kinetic energy:            393828.6975640808 [K]
Current total Nose-Hoover energy:         82375.9631022494 [K]
Current total potential energy:          -2467512.8188973330 [K]  (avg.    -2467512.8188973330)
	Current Host-Host energy:                     0.0000000000 [K]  (avg.           0.0000000000)
	Current Host-Adsorbate energy:                0.0000000000 [K]  (avg.           0.0000000000)
	Current Host-Cation energy:                   0.0000000000 [K]  (avg.           0.0000000000)
	Current Adsorbate-Adsorbate energy:    -2467512.8188973330 [K]  (avg.    -2467512.8188973330)
	Current Cation-Cation energy:                 0.0000000000 [K]  (avg.           0.0000000000)
	Current Adsorbate-Cation energy:              0.0000000000 [K]  (avg.           0.0000000000)



Current cycle: 5000 out of 100000
========================================================================================================

Time run:   5.000000 [ps]   0.005000 [ns] 
Net charge: 0 (F: 0, A: 0, C: 0)
Current Box:  24.97508   0.00000   0.00000 [A]   Average Box:  24.98745   0.00000   0.00000 [A]
               0.00000  24.97508   0.00000 [A]                  0.00000  24.98745   0.00000 [A]
               0.00000   0.00000  24.97508 [A]                  0.00000   0.00000  24.98745 [A]
Box-lengths:   24.97508  24.97508  24.97508 [A] Average:  24.98745  24.98745  24.98745 [A]
Box-angles:   90.00000  90.00000  90.00000 [degrees] Average:  90.00000  90.00000  90.00000 [degrees]
Volume: 15578.31470 [A^3] Average Volume: 15602.07694 [A^3]

Total linear momentum:      -0.0000000000 [A]       0.0000000000 [A]       0.0000000000 [A]

Current Stress: -29.93935  54.11732  10.16002 [MPa]   Average Stress: -13772.22915 4464.05960 -2566.53389 [kPa]
                 54.11732 -21.10264 -76.61642 [MPa]                   4464.05960 17809.08841 -475.09086 [kPa]
                 10.16002 -76.61642  -5.75450 [MPa]                   -2566.53389 -475.09086 -2805.01041 [kPa]
Average pressure:     410.6162808873 [kPa]       4.0524676130 [atm]       4.1061628089 [bar]

Amount of molecules per component:
----------------------------------------------------------------------------------------------------------------------------------------------------
Component 0 (Tip5p), current number of integer/fractional/reaction molecules: 512/0/0 (average 512.00000), density: 982.42711 (average 981.04389) kg/m^3]
----------------------------------------------------------------------------------------------------------------------------------------------------
Degrees of freedom: 3069 0 3069 0
Number of Framework-atoms:      0
Number of Adsorbates:         512 (512 integer, 0 fractional, 0 reaction)
Number of Cations:              0 (0 integer, 0 fractional, 0 reaction)

Conserved energy:    -1894861.2492427630 Energy drifts:  0.0000579791           0.0000422878
Temperature:             302.986 (avg.  300.871), Translational (avg.  302.430), Rotational (avg.  299.315)
Temperature Adsorbates:  302.986 (avg.  300.871), Translational (avg.  302.430), Rotational (avg.  299.315)
Cell temperature:  337.185 (avg.  327.354)
Current total kinetic energy:            386565.6124472387 [K]
Current total Nose-Hoover energy:        126383.7231929704 [K]
Current total potential energy:          -2511797.8720342731 [K]  (avg.    -2497447.2009145408)
	Current Host-Host energy:                     0.0000000000 [K]  (avg.           0.0000000000)
	Current Host-Adsorbate energy:                0.0000000000 [K]  (avg.           0.0000000000)
	Current Host-Cation energy:                   0.0000000000 [K]  (avg.           0.0000000000)
	Current Adsorbate-Adsorbate energy:    -2511797.8720342731 [K]  (avg.    -2497447.2009145408)
	Current Cation-Cation energy:                 0.0000000000 [K]  (avg.           0.0000000000)
	Current Adsorbate-Cation energy:              0.0000000000 [K]  (avg.           0.0000000000)



Average Properties at Current cycle: 10000 out of 100000
========================================================================================

Framework surface area:                nan [m^2/g]        0.0000000000 [m^2/cm^3]       0.0000000000 [A^2]
	Cation surface area:                                nan [m^2/g]        0.0000000000 [m^2/cm^3]       0.0000000000 [A^2]
Compressibility:       0.0000000000 [-]
Henry coefficients
	Component 0: 0 [mol/kg/Pa] (Rosenbluth factor new: 0 [-])
Energy <U_gh>_1-<U_h>_0 from Widom


Current cycle: 10000 out of 100000
========================================================================================================

Time run:  10.000000 [ps]   0.010000 [ns] 
Net charge: 0 (F: 0, A: 0, C: 0)
Current Box:  24.83234   0.00000   0.00000 [A]   Average Box:  24.96072   0.00000   0.00000 [A]
               0.00000  24.83234   0.00000 [A]                  0.00000  24.96072   0.00000 [A]
               0.00000   0.00000  24.83234 [A]                  0.00000   0.00000  24.96072 [A]
Box-lengths:   24.83234  24.83234  24.83234 [A] Average:  24.96072  24.96072  24.96072 [A]
Box-angles:   90.00000  90.00000  90.00000 [degrees] Average:  90.00000  90.00000  90.00000 [degrees]
Volume: 15312.73575 [A^3] Average Volume: 15552.24634 [A^3]

Total linear momentum:      -0.0000000000 [A]       0.0000000000 [A]       0.0000000000 [A]

Current Stress: -87.29835 116.03255  10.77237 [MPa]   Average Stress: -11094.17295 8924.99469 5656.30691 [kPa]
                116.03255 -30.15283  36.08099 [MPa]                   8924.99469 12231.55388 1670.29535 [kPa]
                 10.77237  36.08099   0.16729 [MPa]                   5656.30691 1670.29535 -574.34053 [kPa]
Average pressure:     187.6801332678 [kPa]       1.8522589022 [atm]       1.8768013327 [bar]

Amount of molecules per component:
----------------------------------------------------------------------------------------------------------------------------------------------------
Component 0 (Tip5p), current number of integer/fractional/reaction molecules: 512/0/0 (average 512.00000), density: 999.46600 (average 984.22417) kg/m^3]
----------------------------------------------------------------------------------------------------------------------------------------------------
Degrees of freedom: 3069 0 3069 0
Number of Framework-atoms:      0
Number of Adsorbates:         512 (512 integer, 0 fractional, 0 reaction)
Number of Cations:              0 (0 integer, 0 fractional, 0 reaction)

Conserved energy:    -1894854.4876522399 Energy drifts:  0.0000536871           0.0000301104
Temperature:             314.556 (avg.  300.259), Translational (avg.  301.451), Rotational (avg.  299.069)
Temperature Adsorbates:  314.556 (avg.  300.259), Translational (avg.  301.451), Rotational (avg.  299.069)
Cell temperature:   82.361 (avg.  308.833)
Current total kinetic energy:            401327.6940837776 [K]
Current total Nose-Hoover energy:        116653.6547401134 [K]
Current total potential energy:          -2517843.2349006590 [K]  (avg.    -2494959.3543642517)
	Current Host-Host energy:                     0.0000000000 [K]  (avg.           0.0000000000)
	Current Host-Adsorbate energy:                0.0000000000 [K]  (avg.           0.0000000000)
	Current Host-Cation energy:                   0.0000000000 [K]  (avg.           0.0000000000)
	Current Adsorbate-Adsorbate energy:    -2517843.2349006590 [K]  (avg.    -2494959.3543642517)
	Current Cation-Cation energy:                 0.0000000000 [K]  (avg.           0.0000000000)
	Current Adsorbate-Cation energy:              0.0000000000 [K]  (avg.           0.0000000000)



Current cycle: 15000 out of 100000
========================================================================================================

Time run:  15.000000 [ps]   0.015000 [ns] 
Net charge: 0 (F: 0, A: 0, C: 0)
Current Box:  24.91838   0.00000   0.00000 [A]   Average Box:  24.94912   0.00000   0.00000 [A]
               0.00000  24.91838   0.00000 [A]                  0.00000  24.94912   0.00000 [A]
               0.00000   0.00000  24.91838 [A]                  0.00000   0.00000  24.94912 [A]
Box-lengths:   24.91838  24.91838  24.91838 [A] Average:  24.94912  24.94912  24.94912 [A]
Box-angles:   90.00000  90.00000  90.00000 [degrees] Average:  90.00000  90.00000  90.00000 [degrees]
Volume: 15472.47031 [A^3] Average Volume: 15530.62001 [A^3]

Total linear momentum:      -0.0000000000 [A]       0.0000000000 [A]       0.0000000000 [A]

Current Stress: 107.96381 -81.23048  55.00418 [MPa]   Average Stress: -8820.57713 9208.45332 3408.74382 [kPa]
                -81.23048  -0.48893 -55.57494 [MPa]                   9208.45332 5577.09297 3944.64164 [kPa]
                 55.00418 -55.57494  72.28726 [MPa]                   3408.74382 3944.64164 3785.68262 [kPa]
Average pressure:     180.7328181807 [kPa]       1.7836942332 [atm]       1.8073281818 [bar]

Amount of molecules per component:
----------------------------------------------------------------------------------------------------------------------------------------------------
Component 0 (Tip5p), current number of integer/fractional/reaction molecules: 512/0/0 (average 512.00000), density: 989.14772 (average 985.60221) kg/m^3]
----------------------------------------------------------------------------------------------------------------------------------------------------
Degrees of freedom: 3069 0 3069 0
Number of Framework-atoms:      0
Number of Adsorbates:         512 (512 integer, 0 fractional, 0 reaction)
Number of Cations:              0 (0 integer, 0 fractional, 0 reaction)

Conserved energy:    -1894699.3599976036 Energy drifts:  0.0000447817           0.0000283119
Temperature:             288.650 (avg.  300.172), Translational (avg.  300.980), Rotational (avg.  299.365)
Temperature Adsorbates:  288.650 (avg.  300.172), Translational (avg.  300.980), Rotational (avg.  299.365)
Cell temperature:    7.844 (avg.  300.287)
Current total kinetic energy:            368275.4737620655 [K]
Current total Nose-Hoover energy:        135055.4249048228 [K]
Current total potential energy:          -2500067.6550605143 [K]  (avg.    -2494971.7012628615)
	Current Host-Host energy:                     0.0000000000 [K]  (avg.           0.0000000000)
	Current Host-Adsorbate energy:                0.0000000000 [K]  (avg.           0.0000000000)
	Current Host-Cation energy:                   0.0000000000 [K]  (avg.           0.0000000000)
	Current Adsorbate-Adsorbate energy:    -2500067.6550605143 [K]  (avg.    -2494971.7012628615)
	Current Cation-Cation energy:                 0.0000000000 [K]  (avg.           0.0000000000)
	Current Adsorbate-Cation energy:              0.0000000000 [K]  (avg.           0.0000000000)



Average Properties at Current cycle: 20000 out of 100000
========================================================================================

Framework surface area:                nan [m^2/g]        0.0000000000 [m^2/cm^3]       0.0000000000 [A^2]
	Cation surface area:                                nan [m^2/g]        0.0000000000 [m^2/cm^3]       0.0000000000 [A^2]
Compressibility:       0.0000000000 [-]
Henry coefficients
	Component 0: 0 [mol/kg/Pa] (Rosenbluth factor new: 0 [-])
Energy <U_gh>_1-<U_h>_0 from Widom


Current cycle: 20000 out of 100000
========================================================================================================

Time run:  20.000000 [ps]   0.020000 [ns] 
Net charge: 0 (F: 0, A: 0, C: 0)
Current Box:  24.84545   0.00000   0.00000 [A]   Average Box:  24.93710   0.00000   0.00000 [A]
               0.00000  24.84545   0.00000 [A]                  0.00000  24.93710   0.00000 [A]
               0.00000   0.00000  24.84545 [A]                  0.00000   0.00000  24.93710 [A]
Box-lengths:   24.84545  24.84545  24.84545 [A] Average:  24.93710  24.93710  24.93710 [A]
Box-angles:   90.00000  90.00000  90.00000 [degrees] Average:  90.00000  90.00000  90.00000 [degrees]
Volume: 15337.00523 [A^3] Average Volume: 15508.18570 [A^3]

Total linear momentum:      -0.0000000000 [A]       0.0000000000 [A]       0.0000000000 [A]

Current Stress:  83.96071 -22.57102 -22.53127 [MPa]   Average Stress: -6845.98983 7625.97048 4019.82328 [kPa]
                -22.57102  71.10519 -71.92285 [MPa]                   7625.97048 3139.63012 3747.92668 [kPa]
                -22.53127 -71.92285  31.66097 [MPa]                   4019.82328 3747.92668 4300.84287 [kPa]
Average pressure:     198.1610538166 [kPa]       1.9556975457 [atm]       1.9816105382 [bar]

Amount of molecules per component:
----------------------------------------------------------------------------------------------------------------------------------------------------
Component 0 (Tip5p), current number of integer/fractional/reaction molecules: 512/0/0 (average 512.00000), density: 997.88443 (average 987.02627) kg/m^3]
----------------------------------------------------------------------------------------------------------------------------------------------------
Degrees of freedom: 3069 0 3069 0
Number of Framework-atoms:      0
Number of Adsorbates:         512 (512 integer, 0 fractional, 0 reaction)
Number of Cations:              0 (0 integer, 0 fractional, 0 reaction)

Conserved energy:    -1894695.1874348051 Energy drifts:  0.0000474303           0.0000285309
Temperature:             292.461 (avg.  300.054), Translational (avg.  301.050), Rotational (avg.  299.059)
Temperature Adsorbates:  292.461 (avg.  300.054), Translational (avg.  301.050), Rotational (avg.  299.059)
Cell temperature:  214.676 (avg.  300.188)
Current total kinetic energy:            373138.0084566672 [K]
Current total Nose-Hoover energy:         78640.7351460520 [K]
Current total potential energy:          -2438060.4536737911 [K]  (avg.    -2491511.4804029088)
	Current Host-Host energy:                     0.0000000000 [K]  (avg.           0.0000000000)
	Current Host-Adsorbate energy:                0.0000000000 [K]  (avg.           0.0000000000)
	Current Host-Cation energy:                   0.0000000000 [K]  (avg.           0.0000000000)
	Current Adsorbate-Adsorbate energy:    -2438060.4536737911 [K]  (avg.    -2491511.4804029088)
	Current Cation-Cation energy:                 0.0000000000 [K]  (avg.           0.0000000000)
	Current Adsorbate-Cation energy:              0.0000000000 [K]  (avg.           0.0000000000)



Current cycle: 25000 out of 100000
========================================================================================================

Time run:  25.000000 [ps]   0.025000 [ns] 
Net charge: 0 (F: 0, A: 0, C: 0)
Current Box:  24.82236   0.00000   0.00000 [A]   Average Box:  24.91737   0.00000   0.00000 [A]
               0.00000  24.82236   0.00000 [A]                  0.00000  24.91737   0.00000 [A]
               0.00000   0.00000  24.82236 [A]                  0.00000   0.00000  24.91737 [A]
Box-lengths:   24.82236  24.82236  24.82236 [A] Average:  24.91737  24.91737  24.91737 [A]
Box-angles:   90.00000  90.00000  90.00000 [degrees] Average:  90.00000  90.00000  90.00000 [degrees]
Volume: 15294.29505 [A^3] Average Volume: 15471.49760 [A^3]

Total linear momentum:      -0.0000000000 [A]       0.0000000000 [A]       0.0000000000 [A]

Current Stress:   3.67719   4.85691  36.80195 [MPa]   Average Stress: -3067.30267 5503.83542 4087.73307 [kPa]
                  4.85691 -30.40886 -56.37355 [MPa]                   5503.83542 301.52443 2818.82488 [kPa]
                 36.80195 -56.37355 -213.91392 [MPa]                   4087.73307 2818.82488 3311.01343 [kPa]
Average pressure:     181.7450640501 [kPa]       1.7936843232 [atm]       1.8174506405 [bar]

Amount of molecules per component:
----------------------------------------------------------------------------------------------------------------------------------------------------
Component 0 (Tip5p), current number of integer/fractional/reaction molecules: 512/0/0 (average 512.00000), density: 1000.67108 (average 989.38559) kg/m^3]
----------------------------------------------------------------------------------------------------------------------------------------------------
Degrees of freedom: 3069 0 3069 0
Number of Framework-atoms:      0
Number of Adsorbates:         512 (512 integer, 0 fractional, 0 reaction)
Number of Cations:              0 (0 integer, 0 fractional, 0 reaction)

Conserved energy:    -1894695.7662632528 Energy drifts:  0.0000470629           0.0000275750
Temperature:             292.753 (avg.  299.549), Translational (avg.  300.447), Rotational (avg.  298.652)
Temperature Adsorbates:  292.753 (avg.  299.549), Translational (avg.  300.447), Rotational (avg.  298.652)
Cell temperature:   84.111 (avg.  299.866)
Current total kinetic energy:            373510.1910732798 [K]
Current total Nose-Hoover energy:        149878.2263054586 [K]
Current total potential energy:          -2524187.7261715853 [K]  (avg.    -2491403.7918503145)
	Current Host-Host energy:                     0.0000000000 [K]  (avg.           0.0000000000)
	Current Host-Adsorbate energy:                0.0000000000 [K]  (avg.           0.0000000000)
	Current Host-Cation energy:                   0.0000000000 [K]  (avg.           0.0000000000)
	Current Adsorbate-Adsorbate energy:    -2524187.7261715853 [K]  (avg.    -2491403.7918503145)
	Current Cation-Cation energy:                 0.0000000000 [K]  (avg.           0.0000000000)
	Current Adsorbate-Cation energy:              0.0000000000 [K]  (avg.           0.0000000000)



Average Properties at Current cycle: 30000 out of 100000
========================================================================================

Framework surface area:                nan [m^2/g]        0.0000000000 [m^2/cm^3]       0.0000000000 [A^2]
	Cation surface area:                                nan [m^2/g]        0.0000000000 [m^2/cm^3]       0.0000000000 [A^2]
Compressibility:       0.0000000000 [-]
Henry coefficients
	Component 0: 0 [mol/kg/Pa] (Rosenbluth factor new: 0 [-])
Energy <U_gh>_1-<U_h>_0 from Widom


Current cycle: 30000 out of 100000
========================================================================================================

Time run:  30.000000 [ps]   0.030000 [ns] 
Net charge: 0 (F: 0, A: 0, C: 0)
Current Box:  24.88841   0.00000   0.00000 [A]   Average Box:  24.89866   0.00000   0.00000 [A]
               0.00000  24.88841   0.00000 [A]                  0.00000  24.89866   0.00000 [A]
               0.00000   0.00000  24.88841 [A]                  0.00000   0.00000  24.89866 [A]
Box-lengths:   24.88841  24.88841  24.88841 [A] Average:  24.89866  24.89866  24.89866 [A]
Box-angles:   90.00000  90.00000  90.00000 [degrees] Average:  90.00000  90.00000  90.00000 [degrees]
Volume: 15416.70781 [A^3] Average Volume: 15436.72416 [A^3]

Total linear momentum:      -0.0000000000 [A]       0.0000000000 [A]       0.0000000000 [A]

Current Stress:  41.77105  40.70884 -73.03893 [MPa]   Average Stress: -2015.75306 4982.61592 2348.27543 [kPa]
                 40.70884 -163.77213   8.31581 [MPa]                   4982.61592 -857.93980 2966.93180 [kPa]
                -73.03893   8.31581 -83.42420 [MPa]                   2348.27543 2966.93180 3303.76708 [kPa]
Average pressure:     143.3580745360 [kPa]       1.4148341923 [atm]       1.4335807454 [bar]

Amount of molecules per component:
----------------------------------------------------------------------------------------------------------------------------------------------------
Component 0 (Tip5p), current number of integer/fractional/reaction molecules: 512/0/0 (average 512.00000), density: 992.72548 (average 991.62574) kg/m^3]
----------------------------------------------------------------------------------------------------------------------------------------------------
Degrees of freedom: 3069 0 3069 0
Number of Framework-atoms:      0
Number of Adsorbates:         512 (512 integer, 0 fractional, 0 reaction)
Number of Cations:              0 (0 integer, 0 fractional, 0 reaction)

Conserved energy:    -1894754.8682920558 Energy drifts:  0.0000095473           0.0000297629
Temperature:             300.535 (avg.  299.644), Translational (avg.  300.468), Rotational (avg.  298.822)
Temperature Adsorbates:  300.535 (avg.  299.644), Translational (avg.  300.468), Rotational (avg.  298.822)
Cell temperature:  175.345 (avg.  300.213)
Current total kinetic energy:            383439.2288293616 [K]
Current total Nose-Hoover energy:        108816.6659052456 [K]
Current total potential energy:          -2486802.9871725435 [K]  (avg.    -2488572.5821271567)
	Current Host-Host energy:                     0.0000000000 [K]  (avg.           0.0000000000)
	Current Host-Adsorbate energy:                0.0000000000 [K]  (avg.           0.0000000000)
	Current Host-Cation energy:                   0.0000000000 [K]  (avg.           0.0000000000)
	Current Adsorbate-Adsorbate energy:    -2486802.9871725435 [K]  (avg.    -2488572.5821271567)
	Current Cation-Cation energy:                 0.0000000000 [K]  (avg.           0.0000000000)
	Current Adsorbate-Cation energy:              0.0000000000 [K]  (avg.           0.0000000000)



Current cycle: 35000 out of 100000
========================================================================================================

Time run:  35.000000 [ps]   0.035000 [ns] 
Net charge: 0 (F: 0, A: 0, C: 0)
Current Box:  24.80700   0.00000   0.00000 [A]   Average Box:  24.90718   0.00000   0.00000 [A]
               0.00000  24.80700   0.00000 [A]                  0.00000  24.90718   0.00000 [A]
               0.00000   0.00000  24.80700 [A]                  0.00000   0.00000  24.90718 [A]
Box-lengths:   24.80700  24.80700  24.80700 [A] Average:  24.90718  24.90718  24.90718 [A]
Box-angles:   90.00000  90.00000  90.00000 [degrees] Average:  90.00000  90.00000  90.00000 [degrees]
Volume: 15265.90858 [A^3] Average Volume: 15452.53788 [A^3]

Total linear momentum:      -0.0000000000 [A]       0.0000000000 [A]       0.0000000000 [A]

Current Stress:  36.75814 -89.66504 -10.67700 [MPa]   Average Stress: -477.33271 6029.91835 2187.98684 [kPa]
                -89.66504   3.17645 -53.48649 [MPa]                   6029.91835 -2341.85949 3091.08808 [kPa]
                -10.67700 -53.48649 130.54500 [MPa]                   2187.98684 3091.08808 3324.42523 [kPa]
Average pressure:     168.4110090365 [kPa]       1.6620874319 [atm]       1.6841100904 [bar]

Amount of molecules per component:
----------------------------------------------------------------------------------------------------------------------------------------------------
Component 0 (Tip5p), current number of integer/fractional/reaction molecules: 512/0/0 (average 512.00000), density: 1002.53179 (average 990.60431) kg/m^3]
----------------------------------------------------------------------------------------------------------------------------------------------------
Degrees of freedom: 3069 0 3069 0
Number of Framework-atoms:      0
Number of Adsorbates:         512 (512 integer, 0 fractional, 0 reaction)
Number of Cations:              0 (0 integer, 0 fractional, 0 reaction)

Conserved energy:    -1894603.9699232897 Energy drifts:  0.0001053315           0.0000321651
Temperature:             301.513 (avg.  299.483), Translational (avg.  300.334), Rotational (avg.  298.634)
Temperature Adsorbates:  301.513 (avg.  299.483), Translational (avg.  300.334), Rotational (avg.  298.634)
Cell temperature:  516.418 (avg.  300.333)
Current total kinetic energy:            384686.5232362990 [K]
Current total Nose-Hoover energy:        107026.6848417916 [K]
Current total potential energy:          -2485999.3863830063 [K]  (avg.    -2487251.8404159280)
	Current Host-Host energy:                     0.0000000000 [K]  (avg.           0.0000000000)
	Current Host-Adsorbate energy:                0.0000000000 [K]  (avg.           0.0000000000)
	Current Host-Cation energy:                   0.0000000000 [K]  (avg.           0.0000000000)
	Current Adsorbate-Adsorbate energy:    -2485999.3863830063 [K]  (avg.    -2487251.8404159280)
	Current Cation-Cation energy:                 0.0000000000 [K]  (avg.           0.0000000000)
	Current Adsorbate-Cation energy:              0.0000000000 [K]  (avg.           0.0000000000)



Average Properties at Current cycle: 40000 out of 100000
========================================================================================

Framework surface area:                nan [m^2/g]        0.0000000000 [m^2/cm^3]       0.0000000000 [A^2]
	Cation surface area:                                nan [m^2/g]        0.0000000000 [m^2/cm^3]       0.0000000000 [A^2]
Compressibility:       0.0000000000 [-]
Henry coefficients
	Component 0: 0 [mol/kg/Pa] (Rosenbluth factor new: 0 [-])
Energy <U_gh>_1-<U_h>_0 from Widom


Current cycle: 40000 out of 100000
========================================================================================================

Time run:  40.000000 [ps]   0.040000 [ns] 
Net charge: 0 (F: 0, A: 0, C: 0)
Current Box:  24.82713   0.00000   0.00000 [A]   Average Box:  24.89598   0.00000   0.00000 [A]
               0.00000  24.82713   0.00000 [A]                  0.00000  24.89598   0.00000 [A]
               0.00000   0.00000  24.82713 [A]                  0.00000   0.00000  24.89598 [A]
Box-lengths:   24.82713  24.82713  24.82713 [A] Average:  24.89598  24.89598  24.89598 [A]
Box-angles:   90.00000  90.00000  90.00000 [degrees] Average:  90.00000  90.00000  90.00000 [degrees]
Volume: 15303.09954 [A^3] Average Volume: 15431.70823 [A^3]

Total linear momentum:      -0.0000000000 [A]       0.0000000000 [A]      -0.0000000000 [A]

Current Stress: -80.06406  47.51803   0.45094 [MPa]   Average Stress: -1616.66843 4915.72018 2348.92068 [kPa]
                 47.51803  41.93587  42.27336 [MPa]                   4915.72018 -1508.62978 1813.13354 [kPa]
                  0.45094  42.27336 -54.03880 [MPa]                   2348.92068 1813.13354 3562.51014 [kPa]
Average pressure:     145.7373097831 [kPa]       1.4383154185 [atm]       1.4573730978 [bar]

Amount of molecules per component:
----------------------------------------------------------------------------------------------------------------------------------------------------
Component 0 (Tip5p), current number of integer/fractional/reaction molecules: 512/0/0 (average 512.00000), density: 1000.09535 (average 991.94132) kg/m^3]
----------------------------------------------------------------------------------------------------------------------------------------------------
Degrees of freedom: 3069 0 3069 0
Number of Framework-atoms:      0
Number of Adsorbates:         512 (512 integer, 0 fractional, 0 reaction)
Number of Cations:              0 (0 integer, 0 fractional, 0 reaction)

Conserved energy:    -1894624.2563540565 Energy drifts:  0.0000924545           0.0000388860
Temperature:             293.762 (avg.  299.517), Translational (avg.  300.144), Rotational (avg.  298.891)
Temperature Adsorbates:  293.762 (avg.  299.517), Translational (avg.  300.144), Rotational (avg.  298.891)
Cell temperature:    7.291 (avg.  293.860)
Current total kinetic energy:            374796.9758513606 [K]
Current total Nose-Hoover energy:        130193.9257599043 [K]
Current total potential energy:          -2501989.0772708305 [K]  (avg.    -2486895.3149179807)
	Current Host-Host energy:                     0.0000000000 [K]  (avg.           0.0000000000)
	Current Host-Adsorbate energy:                0.0000000000 [K]  (avg.           0.0000000000)
	Current Host-Cation energy:                   0.0000000000 [K]  (avg.           0.0000000000)
	Current Adsorbate-Adsorbate energy:    -2501989.0772708305 [K]  (avg.    -2486895.3149179807)
	Current Cation-Cation energy:                 0.0000000000 [K]  (avg.           0.0000000000)
	Current Adsorbate-Cation energy:              0.0000000000 [K]  (avg.           0.0000000000)



Current cycle: 45000 out of 100000
========================================================================================================

Time run:  45.000000 [ps]   0.045000 [ns] 
Net charge: 0 (F: 0, A: 0, C: 0)
Current Box:  24.97476   0.00000   0.00000 [A]   Average Box:  24.89073   0.00000   0.00000 [A]
               0.00000  24.97476   0.00000 [A]                  0.00000  24.89073   0.00000 [A]
               0.00000   0.00000  24.97476 [A]                  0.00000   0.00000  24.89073 [A]
Box-lengths:   24.97476  24.97476  24.97476 [A] Average:  24.89073  24.89073  24.89073 [A]
Box-angles:   90.00000  90.00000  90.00000 [degrees] Average:  90.00000  90.00000  90.00000 [degrees]
Volume: 15577.73051 [A^3] Average Volume: 15421.91651 [A^3]

Total linear momentum:      -0.0000000000 [A]       0.0000000000 [A]      -0.0000000000 [A]

Current Stress: -45.43649  82.60832 -61.62101 [MPa]   Average Stress: -317.00163 5181.98456 1890.03095 [kPa]
                 82.60832 -31.74885   2.35855 [MPa]                   5181.98456 235.06071 3494.05883 [kPa]
                -61.62101   2.35855 101.95439 [MPa]                   1890.03095 3494.05883 548.11923 [kPa]
Average pressure:     155.3927687759 [kPa]       1.5336073898 [atm]       1.5539276878 [bar]

Amount of molecules per component:
----------------------------------------------------------------------------------------------------------------------------------------------------
Component 0 (Tip5p), current number of integer/fractional/reaction molecules: 512/0/0 (average 512.00000), density: 982.46395 (average 992.56447) kg/m^3]
----------------------------------------------------------------------------------------------------------------------------------------------------
Degrees of freedom: 3069 0 3069 0
Number of Framework-atoms:      0
Number of Adsorbates:         512 (512 integer, 0 fractional, 0 reaction)
Number of Cations:              0 (0 integer, 0 fractional, 0 reaction)

Conserved energy:    -1894779.9478662973 Energy drifts:  0.0000063723           0.0000407327
Temperature:             311.629 (avg.  299.628), Translational (avg.  300.085), Rotational (avg.  299.173)
Temperature Adsorbates:  311.629 (avg.  299.628), Translational (avg.  300.085), Rotational (avg.  299.173)
Cell temperature:   88.669 (avg.  298.223)
Current total kinetic energy:            397593.1987168507 [K]
Current total Nose-Hoover energy:        131344.9443346495 [K]
Current total potential energy:          -2530946.6976146433 [K]  (avg.    -2487032.0049844305)
	Current Host-Host energy:                     0.0000000000 [K]  (avg.           0.0000000000)
	Current Host-Adsorbate energy:                0.0000000000 [K]  (avg.           0.0000000000)
	Current Host-Cation energy:                   0.0000000000 [K]  (avg.           0.0000000000)
	Current Adsorbate-Adsorbate energy:    -2530946.6976146433 [K]  (avg.    -2487032.0049844305)
	Current Cation-Cation energy:                 0.0000000000 [K]  (avg.           0.0000000000)
	Current Adsorbate-Cation energy:              0.0000000000 [K]  (avg.           0.0000000000)



Average Properties at Current cycle: 50000 out of 100000
========================================================================================

Framework surface area:                nan [m^2/g]        0.0000000000 [m^2/cm^3]       0.0000000000 [A^2]
	Cation surface area:                                nan [m^2/g]        0.0000000000 [m^2/cm^3]       0.0000000000 [A^2]
Compressibility:       0.0000000000 [-]
Henry coefficients
	Component 0: 0 [mol/kg/Pa] (Rosenbluth factor new: 0 [-])
Energy <U_gh>_1-<U_h>_0 from Widom


Current cycle: 50000 out of 100000
========================================================================================================

Time run:  50.000000 [ps]   0.050000 [ns] 
Net charge: 0 (F: 0, A: 0, C: 0)
Current Box:  24.74422   0.00000   0.00000 [A]   Average Box:  24.89469   0.00000   0.00000 [A]
               0.00000  24.74422   0.00000 [A]                  0.00000  24.89469   0.00000 [A]
               0.00000   0.00000  24.74422 [A]                  0.00000   0.00000  24.89469 [A]
Box-lengths:   24.74422  24.74422  24.74422 [A] Average:  24.89469  24.89469  24.89469 [A]
Box-angles:   90.00000  90.00000  90.00000 [degrees] Average:  90.00000  90.00000  90.00000 [degrees]
Volume: 15150.30173 [A^3] Average Volume: 15429.26386 [A^3]

Total linear momentum:      -0.0000000000 [A]       0.0000000000 [A]      -0.0000000000 [A]

Current Stress:  24.79642  61.68339  20.44626 [MPa]   Average Stress: -1040.79085 5349.19431 488.79664 [kPa]
                 61.68339  -4.69762   0.27198 [MPa]                   5349.19431 701.07131 2770.87483 [kPa]
                 20.44626   0.27198  51.89339 [MPa]                   488.79664 2770.87483 818.36934 [kPa]
Average pressure:     159.5499335904 [kPa]       1.5746354166 [atm]       1.5954993359 [bar]

Amount of molecules per component:
----------------------------------------------------------------------------------------------------------------------------------------------------
Component 0 (Tip5p), current number of integer/fractional/reaction molecules: 512/0/0 (average 512.00000), density: 1010.18178 (average 992.08870) kg/m^3]
----------------------------------------------------------------------------------------------------------------------------------------------------
Degrees of freedom: 3069 0 3069 0
Number of Framework-atoms:      0
Number of Adsorbates:         512 (512 integer, 0 fractional, 0 reaction)
Number of Cations:              0 (0 integer, 0 fractional, 0 reaction)

Conserved energy:    -1894687.3110515010 Energy drifts:  0.0000524299           0.0000411139
Temperature:             303.337 (avg.  299.570), Translational (avg.  300.006), Rotational (avg.  299.136)
Temperature Adsorbates:  303.337 (avg.  299.570), Translational (avg.  300.006), Rotational (avg.  299.136)
Cell temperature:   93.507 (avg.  299.891)
Current total kinetic energy:            387013.3092339733 [K]
Current total Nose-Hoover energy:        105962.4119263915 [K]
Current total potential energy:          -2487601.1826550108 [K]  (avg.    -2487883.1036119037)
	Current Host-Host energy:                     0.0000000000 [K]  (avg.           0.0000000000)
	Current Host-Adsorbate energy:                0.0000000000 [K]  (avg.           0.0000000000)
	Current Host-Cation energy:                   0.0000000000 [K]  (avg.           0.0000000000)
	Current Adsorbate-Adsorbate energy:    -2487601.1826550108 [K]  (avg.    -2487883.1036119037)
	Current Cation-Cation energy:                 0.0000000000 [K]  (avg.           0.0000000000)
	Current Adsorbate-Cation energy:              0.0000000000 [K]  (avg.           0.0000000000)



Current cycle: 55000 out of 100000
========================================================================================================

Time run:  55.000000 [ps]   0.055000 [ns] 
Net charge: 0 (F: 0, A: 0, C: 0)
Current Box:  24.98044   0.00000   0.00000 [A]   Average Box:  24.89411   0.00000   0.00000 [A]
               0.00000  24.98044   0.00000 [A]                  0.00000  24.89411   0.00000 [A]
               0.00000   0.00000  24.98044 [A]                  0.00000   0.00000  24.89411 [A]
Box-lengths:   24.98044  24.98044  24.98044 [A] Average:  24.89411  24.89411  24.89411 [A]
Box-angles:   90.00000  90.00000  90.00000 [degrees] Average:  90.00000  90.00000  90.00000 [degrees]
Volume: 15588.35474 [A^3] Average Volume: 15428.16196 [A^3]

Total linear momentum:      -0.0000000000 [A]       0.0000000000 [A]      -0.0000000000 [A]

Current Stress:   7.09384 -37.37009 -39.85067 [MPa]   Average Stress: -902.24663 4692.05555 500.21868 [kPa]
                -37.37009 -84.69569 -17.38813 [MPa]                   4692.05555 -378.75780 3308.40665 [kPa]
                -39.85067 -17.38813 104.30576 [MPa]                   500.21868 3308.40665 1751.90513 [kPa]
Average pressure:     156.9668984841 [kPa]       1.5491428422 [atm]       1.5696689848 [bar]

Amount of molecules per component:
----------------------------------------------------------------------------------------------------------------------------------------------------
Component 0 (Tip5p), current number of integer/fractional/reaction molecules: 512/0/0 (average 512.00000), density: 981.79436 (average 992.15444) kg/m^3]
----------------------------------------------------------------------------------------------------------------------------------------------------
Degrees of freedom: 3069 0 3069 0
Number of Framework-atoms:      0
Number of Adsorbates:         512 (512 integer, 0 fractional, 0 reaction)
Number of Cations:              0 (0 integer, 0 fractional, 0 reaction)

Conserved energy:    -1894678.6374832247 Energy drifts:  0.0000579355           0.0000415212
Temperature:             294.506 (avg.  299.599), Translational (avg.  300.060), Rotational (avg.  299.139)
Temperature Adsorbates:  294.506 (avg.  299.599), Translational (avg.  300.060), Rotational (avg.  299.139)
Cell temperature:   39.095 (avg.  299.071)
Current total kinetic energy:            375746.3609508274 [K]
Current total Nose-Hoover energy:        106599.3906171433 [K]
Current total potential energy:          -2474807.5865124166 [K]  (avg.    -2486653.4870995311)
	Current Host-Host energy:                     0.0000000000 [K]  (avg.           0.0000000000)
	Current Host-Adsorbate energy:                0.0000000000 [K]  (avg.           0.0000000000)
	Current Host-Cation energy:                   0.0000000000 [K]  (avg.           0.0000000000)
	Current Adsorbate-Adsorbate energy:    -2474807.5865124166 [K]  (avg.    -2486653.4870995311)
	Current Cation-Cation energy:                 0.0000000000 [K]  (avg.           0.0000000000)
	Current Adsorbate-Cation energy:              0.0000000000 [K]  (avg.           0.0000000000)



Average Properties at Current cycle: 60000 out of 100000
========================================================================================

Framework surface area:                nan [m^2/g]        0.0000000000 [m^2/cm^3]       0.0000000000 [A^2]
	Cation surface area:                                nan [m^2/g]        0.0000000000 [m^2/cm^3]       0.0000000000 [A^2]
Compressibility:       0.0000000000 [-]
Henry coefficients
	Component 0: 0 [mol/kg/Pa] (Rosenbluth factor new: 0 [-])
Energy <U_gh>_1-<U_h>_0 from Widom


Current cycle: 60000 out of 100000
========================================================================================================

Time run:  60.000000 [ps]   0.060000 [ns] 
Net charge: 0 (F: 0, A: 0, C: 0)
Current Box:  24.96190   0.00000   0.00000 [A]   Average Box:  24.90440   0.00000   0.00000 [A]
               0.00000  24.96190   0.00000 [A]                  0.00000  24.90440   0.00000 [A]
               0.00000   0.00000  24.96190 [A]                  0.00000   0.00000  24.90440 [A]
Box-lengths:   24.96190  24.96190  24.96190 [A] Average:  24.90440  24.90440  24.90440 [A]
Box-angles:   90.00000  90.00000  90.00000 [degrees] Average:  90.00000  90.00000  90.00000 [degrees]
Volume: 15553.67127 [A^3] Average Volume: 15447.38390 [A^3]

Total linear momentum:      -0.0000000000 [A]       0.0000000000 [A]      -0.0000000000 [A]

Current Stress: -93.32908  30.41290 -46.80467 [MPa]   Average Stress: -1025.48026 4355.76129 539.78230 [kPa]
                 30.41290 -30.00279 -92.00936 [MPa]                   4355.76129  40.06483 3052.92321 [kPa]
                -46.80467 -92.00936 -54.61368 [MPa]                   539.78230 3052.92321 1480.32985 [kPa]
Average pressure:     164.9714737824 [kPa]       1.6281418582 [atm]       1.6497147378 [bar]

Amount of molecules per component:
----------------------------------------------------------------------------------------------------------------------------------------------------
Component 0 (Tip5p), current number of integer/fractional/reaction molecules: 512/0/0 (average 512.00000), density: 983.98368 (average 990.93659) kg/m^3]
----------------------------------------------------------------------------------------------------------------------------------------------------
Degrees of freedom: 3069 0 3069 0
Number of Framework-atoms:      0
Number of Adsorbates:         512 (512 integer, 0 fractional, 0 reaction)
Number of Cations:              0 (0 integer, 0 fractional, 0 reaction)

Conserved energy:    -1894675.1649600875 Energy drifts:  0.0000601398           0.0000409949
Temperature:             298.739 (avg.  299.573), Translational (avg.  299.876), Rotational (avg.  299.271)
Temperature Adsorbates:  298.739 (avg.  299.573), Translational (avg.  299.876), Rotational (avg.  299.271)
Cell temperature:    1.616 (avg.  300.942)
Current total kinetic energy:            381147.0178315343 [K]
Current total Nose-Hoover energy:        105661.8900437336 [K]
[...]
	Average              0.00000 [K] +/-            0.00000 [K]

Average Adsorbate Intra charge-charge Coulomb energy:
=======================================
	Block[ 0]            0.00000 [K]
	Block[ 1]            0.00000 [K]
	Block[ 2]            0.00000 [K]
	Block[ 3]            0.00000 [K]
	Block[ 4]            0.00000 [K]
	------------------------------------------------------------------------------
	Average              0.00000 [K] +/-            0.00000 [K]

Average Adsorbate Intra charge-bonddipole Coulomb energy:
=======================================
	Block[ 0]            0.00000 [K]
	Block[ 1]            0.00000 [K]
	Block[ 2]            0.00000 [K]
	Block[ 3]            0.00000 [K]
	Block[ 4]            0.00000 [K]
	------------------------------------------------------------------------------
	Average              0.00000 [K] +/-            0.00000 [K]

Average Adsorbate Intra bonddipole-bonddipole Coulomb energy:
=======================================
	Block[ 0]            0.00000 [K]
	Block[ 1]            0.00000 [K]
	Block[ 2]            0.00000 [K]
	Block[ 3]            0.00000 [K]
	Block[ 4]            0.00000 [K]
	------------------------------------------------------------------------------
	Average              0.00000 [K] +/-            0.00000 [K]

Average Cation Bond stretch energy:
=================================
	Block[ 0]            0.00000 [K]
	Block[ 1]            0.00000 [K]
	Block[ 2]            0.00000 [K]
	Block[ 3]            0.00000 [K]
	Block[ 4]            0.00000 [K]
	------------------------------------------------------------------------------
	Average              0.00000 [K] +/-            0.00000 [K]

Average Cation UreyBradley stretch energy:
==========================================
	Block[ 0]            0.00000 [K]
	Block[ 1]            0.00000 [K]
	Block[ 2]            0.00000 [K]
	Block[ 3]            0.00000 [K]
	Block[ 4]            0.00000 [K]
	------------------------------------------------------------------------------
	Average              0.00000 [K] +/-            0.00000 [K]

Average Cation Bend angle energy:
=================================
	Block[ 0]            0.00000 [K]
	Block[ 1]            0.00000 [K]
	Block[ 2]            0.00000 [K]
	Block[ 3]            0.00000 [K]
	Block[ 4]            0.00000 [K]
	------------------------------------------------------------------------------
	Average              0.00000 [K] +/-            0.00000 [K]

Average Cation Bend angle inversion energy:
===========================================
	Block[ 0]            0.00000 [K]
	Block[ 1]            0.00000 [K]
	Block[ 2]            0.00000 [K]
	Block[ 3]            0.00000 [K]
	Block[ 4]            0.00000 [K]
	------------------------------------------------------------------------------
	Average              0.00000 [K] +/-            0.00000 [K]

Average Cation Torsion energy:
==============================
	Block[ 0]            0.00000 [K]
	Block[ 1]            0.00000 [K]
	Block[ 2]            0.00000 [K]
	Block[ 3]            0.00000 [K]
	Block[ 4]            0.00000 [K]
	------------------------------------------------------------------------------
	Average              0.00000 [K] +/-            0.00000 [K]

Average Cation Improper Torsion energy:
=======================================
	Block[ 0]            0.00000 [K]
	Block[ 1]            0.00000 [K]
	Block[ 2]            0.00000 [K]
	Block[ 3]            0.00000 [K]
	Block[ 4]            0.00000 [K]
	------------------------------------------------------------------------------
	Average              0.00000 [K] +/-            0.00000 [K]

Average Cation Bond-Bond cross term energy:
=================================================
	Block[ 0]            0.00000 [K]
	Block[ 1]            0.00000 [K]
	Block[ 2]            0.00000 [K]
	Block[ 3]            0.00000 [K]
	Block[ 4]            0.00000 [K]
	------------------------------------------------------------------------------
	Average              0.00000 [K] +/-            0.00000 [K]

Average Cation Bend-Bend cross term energy:
===========================================
	Block[ 0]            0.00000 [K]
	Block[ 1]            0.00000 [K]
	Block[ 2]            0.00000 [K]
	Block[ 3]            0.00000 [K]
	Block[ 4]            0.00000 [K]
	------------------------------------------------------------------------------
	Average              0.00000 [K] +/-            0.00000 [K]

Average Cation Bond-Bend cross term energy:
==============================================
	Block[ 0]            0.00000 [K]
	Block[ 1]            0.00000 [K]
	Block[ 2]            0.00000 [K]
	Block[ 3]            0.00000 [K]
	Block[ 4]            0.00000 [K]
	------------------------------------------------------------------------------
	Average              0.00000 [K] +/-            0.00000 [K]

Average Cation Bond-Torsion cross term energy:
==============================================
	Block[ 0]            0.00000 [K]
	Block[ 1]            0.00000 [K]
	Block[ 2]            0.00000 [K]
	Block[ 3]            0.00000 [K]
	Block[ 4]            0.00000 [K]
	------------------------------------------------------------------------------
	Average              0.00000 [K] +/-            0.00000 [K]

Average Cation Bend-Torsion cross term energy:
==============================================
	Block[ 0]            0.00000 [K]
	Block[ 1]            0.00000 [K]
	Block[ 2]            0.00000 [K]
	Block[ 3]            0.00000 [K]
	Block[ 4]            0.00000 [K]
	------------------------------------------------------------------------------
	Average              0.00000 [K] +/-            0.00000 [K]

Average Cation Intra Van der Waals energy:
==========================================
	Block[ 0]            0.00000 [K]
	Block[ 1]            0.00000 [K]
	Block[ 2]            0.00000 [K]
	Block[ 3]            0.00000 [K]
	Block[ 4]            0.00000 [K]
	------------------------------------------------------------------------------
	Average              0.00000 [K] +/-            0.00000 [K]

Average Cation Intra charge-charge Coulomb energy:
====================================
	Block[ 0]            0.00000 [K]
	Block[ 1]            0.00000 [K]
	Block[ 2]            0.00000 [K]
	Block[ 3]            0.00000 [K]
	Block[ 4]            0.00000 [K]
	------------------------------------------------------------------------------
	Average              0.00000 [K] +/-            0.00000 [K]

Average Cation Intra charge-bonddipole Coulomb energy:
====================================
	Block[ 0]            0.00000 [K]
	Block[ 1]            0.00000 [K]
	Block[ 2]            0.00000 [K]
	Block[ 3]            0.00000 [K]
	Block[ 4]            0.00000 [K]
	------------------------------------------------------------------------------
	Average              0.00000 [K] +/-            0.00000 [K]

Average Cation Intra bonddipole-bonddipole Coulomb energy:
====================================
	Block[ 0]            0.00000 [K]
	Block[ 1]            0.00000 [K]
	Block[ 2]            0.00000 [K]
	Block[ 3]            0.00000 [K]
	Block[ 4]            0.00000 [K]
	------------------------------------------------------------------------------
	Average              0.00000 [K] +/-            0.00000 [K]

Average Host-Host energy:
=========================
	Block[ 0] 0.00000            Van der Waals: 0.00000            Coulomb: 0.00000            [K]
	Block[ 1] 0.00000            Van der Waals: 0.00000            Coulomb: 0.00000            [K]
	Block[ 2] 0.00000            Van der Waals: 0.00000            Coulomb: 0.00000            [K]
	Block[ 3] 0.00000            Van der Waals: 0.00000            Coulomb: 0.00000            [K]
	Block[ 4] 0.00000            Van der Waals: 0.00000            Coulomb: 0.00000            [K]
	------------------------------------------------------------------------------
	Average   0.00000            Van der Waals: 0.000000           Coulomb: 0.00000            [K]
	      +/- 0.00000                       +/- 0.000000                +/- 0.00000            [K]

Average Adsorbate-Adsorbate energy:
===================================
	Block[ 0] -2491514.15295     Van der Waals: 420078.22148       Coulomb: -2911592.37443     [K]
	Block[ 1] -2482275.72219     Van der Waals: 408573.93050       Coulomb: -2890849.65270     [K]
	Block[ 2] -2487962.43368     Van der Waals: 417258.80619       Coulomb: -2905221.23987     [K]
	Block[ 3] -2491406.73290     Van der Waals: 419793.51959       Coulomb: -2911200.25249     [K]
	Block[ 4] -2498042.67321     Van der Waals: 420233.97633       Coulomb: -2918276.64954     [K]
	------------------------------------------------------------------------------
	Average   -2490240.34299     Van der Waals: 417187.690820      Coulomb: -2907428.03381     [K]
	      +/- 10294.98788                   +/- 8882.670350             +/- 18525.15025        [K]

Average Cation-Cation energy:
=============================
	Block[ 0] 0.00000            Van der Waals: 0.00000            Coulomb: 0.00000            [K]
	Block[ 1] 0.00000            Van der Waals: 0.00000            Coulomb: 0.00000            [K]
	Block[ 2] 0.00000            Van der Waals: 0.00000            Coulomb: 0.00000            [K]
	Block[ 3] 0.00000            Van der Waals: 0.00000            Coulomb: 0.00000            [K]
	Block[ 4] 0.00000            Van der Waals: 0.00000            Coulomb: 0.00000            [K]
	------------------------------------------------------------------------------
	Average   0.00000            Van der Waals: 0.000000           Coulomb: 0.00000            [K]
	      +/- 0.00000                       +/- 0.000000                +/- 0.00000            [K]

Average Host-Adsorbate energy:
==============================
	Block[ 0] 0.00000            Van der Waals: 0.00000            Coulomb: 0.00000            [K]
	Block[ 1] 0.00000            Van der Waals: 0.00000            Coulomb: 0.00000            [K]
	Block[ 2] 0.00000            Van der Waals: 0.00000            Coulomb: 0.00000            [K]
	Block[ 3] 0.00000            Van der Waals: 0.00000            Coulomb: 0.00000            [K]
	Block[ 4] 0.00000            Van der Waals: 0.00000            Coulomb: 0.00000            [K]
	------------------------------------------------------------------------------
	Average   0.00000            Van der Waals: 0.000000           Coulomb: 0.00000            [K]
	      +/- 0.00000                       +/- 0.000000                +/- 0.00000            [K]

Average Host-Cation energy:
===========================
	Block[ 0] 0.00000            Van der Waals: 0.00000            Coulomb: 0.00000            [K]
	Block[ 1] 0.00000            Van der Waals: 0.00000            Coulomb: 0.00000            [K]
	Block[ 2] 0.00000            Van der Waals: 0.00000            Coulomb: 0.00000            [K]
	Block[ 3] 0.00000            Van der Waals: 0.00000            Coulomb: 0.00000            [K]
	Block[ 4] 0.00000            Van der Waals: 0.00000            Coulomb: 0.00000            [K]
	------------------------------------------------------------------------------
	Average   0.00000            Van der Waals: 0.000000           Coulomb: 0.00000            [K]
	      +/- 0.00000                       +/- 0.000000                +/- 0.00000            [K]

Average Adsorbate-Cation energy:
================================
	Block[ 0] 0.00000            Van der Waals: 0.00000            Coulomb: 0.00000            [K]
	Block[ 1] 0.00000            Van der Waals: 0.00000            Coulomb: 0.00000            [K]
	Block[ 2] 0.00000            Van der Waals: 0.00000            Coulomb: 0.00000            [K]
	Block[ 3] 0.00000            Van der Waals: 0.00000            Coulomb: 0.00000            [K]
	Block[ 4] 0.00000            Van der Waals: 0.00000            Coulomb: 0.00000            [K]
	------------------------------------------------------------------------------
	Average   0.00000            Van der Waals: 0.000000           Coulomb: 0.00000            [K]
	      +/- 0.00000                       +/- 0.000000                +/- 0.00000            [K]

Host polarization energy:
=======================
	Block[ 0]            0.00000 [K]
	Block[ 1]            0.00000 [K]
	Block[ 2]            0.00000 [K]
	Block[ 3]            0.00000 [K]
	Block[ 4]            0.00000 [K]
	------------------------------------------------------------------------------
	Average              0.00000 [K] +/-            0.00000 [K]

Adsorbate polarization energy:
=======================
	Block[ 0]            0.00000 [K]
	Block[ 1]            0.00000 [K]
	Block[ 2]            0.00000 [K]
	Block[ 3]            0.00000 [K]
	Block[ 4]            0.00000 [K]
	------------------------------------------------------------------------------
	Average              0.00000 [K] +/-            0.00000 [K]

Cation polarization energy:
=======================
	Block[ 0]            0.00000 [K]
	Block[ 1]            0.00000 [K]
	Block[ 2]            0.00000 [K]
	Block[ 3]            0.00000 [K]
	Block[ 4]            0.00000 [K]
	------------------------------------------------------------------------------
	Average              0.00000 [K] +/-            0.00000 [K]

Host back-polarization energy:
=======================
	Block[ 0]            0.00000 [K]
	Block[ 1]            0.00000 [K]
	Block[ 2]            0.00000 [K]
	Block[ 3]            0.00000 [K]
	Block[ 4]            0.00000 [K]
	------------------------------------------------------------------------------
	Average              0.00000 [K] +/-            0.00000 [K]

Adsorbate back-polarization energy:
=======================
	Block[ 0]            0.00000 [K]
	Block[ 1]            0.00000 [K]
	Block[ 2]            0.00000 [K]
	Block[ 3]            0.00000 [K]
	Block[ 4]            0.00000 [K]
	------------------------------------------------------------------------------
	Average              0.00000 [K] +/-            0.00000 [K]

Cation back-polarization energy:
=======================
	Block[ 0]            0.00000 [K]
	Block[ 1]            0.00000 [K]
	Block[ 2]            0.00000 [K]
	Block[ 3]            0.00000 [K]
	Block[ 4]            0.00000 [K]
	------------------------------------------------------------------------------
	Average              0.00000 [K] +/-            0.00000 [K]

Tail-correction energy:
=======================
	Block[ 0]            0.00000 [K]
	Block[ 1]            0.00000 [K]
	Block[ 2]            0.00000 [K]
	Block[ 3]            0.00000 [K]
	Block[ 4]            0.00000 [K]
	------------------------------------------------------------------------------
	Average              0.00000 [K] +/-            0.00000 [K]

Distance-constraints energy:
=======================
	Block[ 0]            0.00000 [K]
	Block[ 1]            0.00000 [K]
	Block[ 2]            0.00000 [K]
	Block[ 3]            0.00000 [K]
	Block[ 4]            0.00000 [K]
	------------------------------------------------------------------------------
	Average              0.00000 [K] +/-            0.00000 [K]

Angle-constraints energy:
=======================
	Block[ 0]            0.00000 [K]
	Block[ 1]            0.00000 [K]
	Block[ 2]            0.00000 [K]
	Block[ 3]            0.00000 [K]
	Block[ 4]            0.00000 [K]
	------------------------------------------------------------------------------
	Average              0.00000 [K] +/-            0.00000 [K]

Dihedral-constraints energy:
=======================
	Block[ 0]            0.00000 [K]
	Block[ 1]            0.00000 [K]
	Block[ 2]            0.00000 [K]
	Block[ 3]            0.00000 [K]
	Block[ 4]            0.00000 [K]
	------------------------------------------------------------------------------
	Average              0.00000 [K] +/-            0.00000 [K]

Inversion-bend constraints energy:
=======================
	Block[ 0]            0.00000 [K]
	Block[ 1]            0.00000 [K]
	Block[ 2]            0.00000 [K]
	Block[ 3]            0.00000 [K]
	Block[ 4]            0.00000 [K]
	------------------------------------------------------------------------------
	Average              0.00000 [K] +/-            0.00000 [K]

Out-of-plane-distance constraints energy:
=======================
	Block[ 0]            0.00000 [K]
	Block[ 1]            0.00000 [K]
	Block[ 2]            0.00000 [K]
	Block[ 3]            0.00000 [K]
	Block[ 4]            0.00000 [K]
	------------------------------------------------------------------------------
	Average              0.00000 [K] +/-            0.00000 [K]

Exclusion-constraints energy:
=======================
	Block[ 0]            0.00000 [K]
	Block[ 1]            0.00000 [K]
	Block[ 2]            0.00000 [K]
	Block[ 3]            0.00000 [K]
	Block[ 4]            0.00000 [K]
	------------------------------------------------------------------------------
	Average              0.00000 [K] +/-            0.00000 [K]

Total energy:
=============
	Block[ 0]     -2491514.15295 [K]
	Block[ 1]     -2482275.72219 [K]
	Block[ 2]     -2487962.43368 [K]
	Block[ 3]     -2491406.73290 [K]
	Block[ 4]     -2498042.67321 [K]
	------------------------------------------------------------------------------
	Average       -2490240.34299 [K] +/-        10294.98788 [K]

Number of molecules:
====================

Component 0 [Tip5p]
-------------------------------------------------------------
	Block[ 0] 512.00000          [-]
	Block[ 1] 512.00000          [-]
	Block[ 2] 512.00000          [-]
	Block[ 3] 512.00000          [-]
	Block[ 4] 512.00000          [-]
	------------------------------------------------------------------------------
	Average                                    512.0000000000 +/-       0.0000000000 [-]
	Average loading absolute [molecules/unit cell]      512.0000000000 +/-       0.0000000000 [-]
	Average loading absolute [mol/kg framework]                   inf +/-                nan [-]
	Average loading absolute [milligram/gram framework]                   inf +/-                nan [-]
	Average loading absolute [cm^3 (STP)/gr framework]                   inf +/-                nan [-]
	Average loading absolute [cm^3 (STP)/cm^3 framework]       1244.8232998028 +/-       0.0000000000 [-]

	Block[ 0] 512.00000          [-]
	Block[ 1] 512.00000          [-]
	Block[ 2] 512.00000          [-]
	Block[ 3] 512.00000          [-]
	Block[ 4] 512.00000          [-]
	------------------------------------------------------------------------------
	Average                                    512.0000000000 +/-       0.0000000000 [-]
	Average loading excess [molecules/unit cell]      512.0000000000 +/-       0.0000000000 [-]
	Average loading excess [mol/kg framework]                   inf +/-                nan [-]
	Average loading excess [milligram/gram framework]                   inf +/-                nan [-]
	Average loading excess [cm^3 (STP)/gr framework]                   inf +/-                nan [-]
	Average loading excess [cm^3 (STP)/cm^3 framework]       1244.8232998028 +/-       0.0000000000 [-]


Average Widom Rosenbluth factor:
================================
	Block[ 0] 0 [-]
	Block[ 1] 0 [-]
	Block[ 2] 0 [-]
	Block[ 3] 0 [-]
	Block[ 4] 0 [-]
	------------------------------------------------------------------------------
	[Tip5p] Average Widom:   0 +/- 0.000000 [-]

Average Henry coefficient:
==========================
	Block[ 0] 0 [mol/kg/Pa]
	Block[ 1] 0 [mol/kg/Pa]
	Block[ 2] 0 [mol/kg/Pa]
	Block[ 3] 0 [mol/kg/Pa]
	Block[ 4] 0 [mol/kg/Pa]
	------------------------------------------------------------------------------
	[Tip5p] Average Henry coefficient:  0 +/- 0 [mol/kg/Pa]

Average adsorption energy <U_gh>_1-<U_h>_0 obtained from Widom-insertion:
(Note: the total heat of adsorption is dH=<U_gh>_1-<U_h>_0 - <U_g> - RT)
=========================================================================

Simulation finished,  0 warnings


Wed Dec 10 02:03:30 2014
Simulation finished on Wednesday, December 10.
The end time was 02:03 AM.

