Compiler and run-time data
===========================================================================
RASPA 2.0.45
Compiled as a 64-bits application
Compiler: gcc Apple LLVM 12.0.5 (clang-1205.0.22.9)
Compile Date = May 18 2021, Compile Time = 12:54:12

Tue May 18 12:59:22 2021
Simulation started on Tuesday, May 18.
The start time was 12:59 PM.

Cpu data:    x86_64
Cpu Model:   MacPro7,1
Host name:   MacPro.local
OS release:  20.4.0
OS type:     Darwin
OS version:  20E232


Simulation
===========================================================================
Dimensions: 3
Random number seed: 1621335350
RASPA directory set to: /Users/dubbelda/RASPA/simulations/
String appended to output-files: 
Number of cycles: 25000
Number of initializing cycles: 5000
Number of equilibration cycles: 0
Print every: 1000
Rectangular boundary condition applied
Timestep: 0.000500
	Degrees of freedom:                        12
	Translational Degrees of freedom:          12
	Rotational Degrees of freedom:             0
	Degrees of freedom Framework:              0


Mutual consistent basic set of units:
======================================
Unit of temperature: Kelvin
Unit of length:      1e-10 [m]
Unit of time:        1e-12 [s]
Unit of mass:        1.66054e-27 [kg]
Unit of charge:      1.60218e-19 [C/particle]

Derived units and their conversion factors:
===========================================
Unit of energy:              1.66054e-23 [J]
Unit of force:               1.66054e-13 [N]
Unit of pressure:            1.66054e+07 [Pa]
Unit of velocity:            100 [m/s]
Unit of acceleration:        1e-08 [m^2/s]
Unit of diffusion:           1e-08 [m^2/s]
Unit of dipole moment:       1.60218e-29 [C.m]
Unit of electric potential:  0.000103643 [V]
Unit of electric field:      1.03643e+06 [V]
Unit of polarizability:      1.54587e-35 [-]
Unit of Coulomb potential:   167101.0800066561  [K]
Unit of dielectric constant: 0.0000154587       [s^2 C^2/(kg m^3)]
Unit of wave vectors:        5.3088374589       [cm^1]
Boltzmann constant:          0.8314464919       [-]

Internal conversion factors:
===========================================
Energy to Kelvin:                                    1.2027242847
FH correction factor                                 2.0211930949
Heat capacity conversion factor:                    10.0000088723
From Debye to internal units:                        4.8032067991
Isothermal compressibility conversion factor:        0.0000000602

Energy conversion factors:
===========================================
From mdyne/A to kcal/mol/A^2:           143.933
From mdyne/A to kj/mol/A^2:             602.214
From mdyne/A to K/A^2:                  72429.7
From mdyne A/rad^2 to kcal/mol/deg^2:   0.0438444


Properties computed
===========================================================================
Movies: no
Radial Distribution Function: no
Number of molecules GCMC histogram: yes
	Number of molecules histograms are written to file every 5000 cycles
	Size of the number-of-molecule histogram: 1100
	Range of the number-of-molecule histogram: 80.000000
Histogram of the molecule positions: no
Free energy profiles: no
Pore Size Distribution Function: no
End-to-end distance: no
Histogram of the energy of the system: yes
	Energy histograms are written to file every 5000 cycles
	Lower limit of the energy histogram: -110000.000000
	Upper limit of the energy histogram: -20000.000000
	Size of the energy histogram: 400
Compute thermodynamic factors: no
Framework spacing histograms: no
Residence times histograms: no
Distance histograms: no
Bend Angle histograms: no
Dihedral angle histograms: no
Angle between planes histograms: no
Molecule properties: no
Infra-red spectra: no
Mean-squared displacement using modified order-N algorithm: no
Velocity-autocorrelation function modified order-N algorithm: no
Rotational velocity-autocorrelation function modified order-N algorithm: no
Molecular orientation-autocorrelation function modified order-N algorithm: no
Bond orientation-autocorrelation function modified order-N algorithm: no
Mean-squared displacement (conventional algorithm): no
Velocity-autocorrelation function (conventional algorithm): no
3D density grid for adsorbates: no
Compute cation an/or adsorption sites: no
dcTST snapshots: no
Compute pressure and stress: no


VTK
===========================================================================
VTK fractional-range position framework atoms: [-0.001000,1.001000] [-0.001000,1.001000] [-0.001000,1.001000]
VTK fractional-range position framework bonds: [-0.151000,1.151000] [-0.151000,1.151000] [-0.151000,1.151000]
VTK fractional-range com-position adsorbate molecules: [-0.101000,1.101000] [-0.101000,1.101000] [-0.101000,1.101000]
VTK fractional-range com-position cation molecules: [-0.101000,1.101000] [-0.101000,1.101000] [-0.101000,1.101000]
	3D free energy grid made for the full simulation-cell


Thermo/Baro-stat NHC parameters
===========================================================================
External temperature: 300 [K]
Beta: 0.00400908 [energy unit]
Number of isotherm points: 2
	 point   0: External Pressure: 10000 [Pa]
		 point   1: External Pressure: 100000 [Pa]


Thermostat chain-length: 3
Timescale parameter for thermostat: 0.150000 [ps]
Barostat chain-length:   3
Timescale parameter for barostat:   0.150000 [ps]

Number of Yoshida-Suzuki decomposition steps: 5
Number of respa steps: 5


Method and settings for electrostatics
===============================================================================
Dielectric constant of the medium : 1.000000
Charge from charge-equilibration: no
Ewald summation is used (exact solution of a periodic system)
Relative precision                : 1e-06
Alpha convergence parameter       : 0.265058
kvec (x,y,z)                      : 11 11 7


CFC-RXMC parameters
===========================================================================
Number of reactions: 0


Rattle parameters
===========================================================================
Distance constraint type: r^2-r^2_0
Bend angle constraint type: theta-theta_0
Dihedral angle constraint type: phi-phi_0
Inversion-bend angle constraint type: chi-chi_0
Out-of-plane distance constraint type: r-r_0


Spectra parameters
===========================================================================
Compute normal modes: no


Minimization parameters
===========================================================================
Generalized coordinates are: Cartesian center-of-mass, elements of the orientational matrix p1,p2,p3 and strain
Potential derivatives are evaluated: analytically
Translation of the system is removed from the generalized Hessian: no
Rotation of the system is removed from the generalized Hessian: no
Maximum step-length: 0.3
Convergence factor: 1
Maximum number of minimization steps: 10000
Use gradients in the line-minimizations: yes
RMS gradient tolerance: 1e-06
Maximum gradient tolerance: 1e-06

Distance constraints: 0
Angle constraints: 0
Dihedral constraints: 0

Improper dihedral constraints: 0

Inversion-bend constraints: 0

Out-of-plane constraints: 0

Harmonic distance constraints: 0
Harmonic angle constraints: 0
Harmonic dihedral constraints: 0

Dihedral mid-point measurements: 0

All framework atoms are fixed

Fixed adsorbate atoms:  
Fixed adsorbate groups (center-of-mass):  
Fixed adsorbate groups (orientation):  

Fixed cation atoms:  
Fixed cation groups (center-of-mass):  
Fixed cation groups (orientation):  


dcTST parameters
===========================================================================
Free energy profiles computed: no
Free energy profiles written every 5000 cycles
Free energy mapping: mapped to a,b,c-coordinates
BarrierPosition:       0.0000000000       0.0000000000       0.0000000000
BarrierNormal:         0.0000000000       0.0000000000       0.0000000000
Start with a molecule on top of the barrier: no
Maximum distance to barrier (e.g. distance to minumum free energy):       0.0000000000 [A]
Maximum trajectory time:      10.0000000000 [ps]
Each configuration is used with 5 different initial velocities


Cbmc parameters
===========================================================================
Biasing method: using only the VDW part
Number of trial positions:                                       10
Number of trial positions (reinsertion):                         10
Number of trial positions (partial reinsertion):                 10
Number of trial positions (identity-change):                     10
Number of trial positions (Gibbs particle transfer):             10
Number of trial positions (insertion/deletion):                  10
Number of trial positions (Widom insertion):                     10
Number of trial positions coupled Torsion-selection:             100
Number of trial positions first bead:                            10
Number of trial positions first bead (reinsertion):              10
Number of trial positions first bead (partial reinsertion):      10
Number of trial positions first bead (identity-change):          10
Number of trial positions first bead (Gibbs particle transfer):  10
Number of trial positions first bead (insertion/deletion):       10
Number of trial positions first bead (Widom insertion):          10
Number of trial moves per open bead:                             150
Target acceptance ratio small-mc scheme:                         0.400000
Energy overlap criteria:                                         1e+07
Minimal Rosenbluth factor:                                       1e-150


Pseudo atoms: 16
===========================================================================
Pseudo Atom[   0] Name UNIT     Oxidation:          Element: H    pdb-name: H    Scat. Types:   1   1 Mass=1.000000000  B-factor:0.000   
                 Charge=1.000000000          Polarization=0.000000000  [A^3] (considered a charged atom and no polarization)  Interactions: yes
                 Anisotropic factor:    0.000 [-] (Absolute), Radius:    1.000 [A], Framework-atom:  no
Pseudo Atom[   1] Name He       Oxidation: +0       Element: He   pdb-name: He   Scat. Types:   3   2 Mass=4.002602000  B-factor:1.000   
                 Charge=0.000000000          Polarization=0.000000000  [A^3] (considered a chargeless atom and no polarization)  Interactions: yes
                 Anisotropic factor:    0.000 [-] (Relative), Radius:    1.000 [A], Framework-atom:  no
Pseudo Atom[   2] Name C_co2    Oxidation: +0       Element: C    pdb-name: C    Scat. Types:   7   6 Mass=12.000000000 B-factor:1.000   
                 Charge=0.651200000          Polarization=0.000000000  [A^3] (considered a charged atom and no polarization)  Interactions: yes
                 Anisotropic factor:    0.000 [-] (Relative), Radius:    0.720 [A], Framework-atom:  no
Pseudo Atom[   3] Name O_co2    Oxidation: +0       Element: O    pdb-name: O    Scat. Types:   9   8 Mass=15.999400000 B-factor:1.000   
                 Charge=-0.325600000         Polarization=0.000000000  [A^3] (considered a charged atom and no polarization)  Interactions: yes
                 Anisotropic factor:    0.000 [-] (Relative), Radius:    0.680 [A], Framework-atom:  no
Pseudo Atom[   4] Name O_o2     Oxidation: +0       Element: O    pdb-name: O    Scat. Types:   9   8 Mass=15.999400000 B-factor:1.000   
                 Charge=-0.112000000         Polarization=0.000000000  [A^3] (considered a charged atom and no polarization)  Interactions: yes
                 Anisotropic factor:    0.000 [-] (Relative), Radius:    0.700 [A], Framework-atom:  no
Pseudo Atom[   5] Name O_com    Oxidation: +0       Element: -    pdb-name: O    Scat. Types:   0   8 Mass=0.000000000  B-factor:1.000   
                 Charge=0.224000000          Polarization=0.000000000  [A^3] (considered a charged atom and no polarization)  Interactions: yes
                 Anisotropic factor:    0.000 [-] (Relative), Radius:    0.700 [A], Framework-atom:  no
Pseudo Atom[   6] Name N_n2     Oxidation: +0       Element: N    pdb-name: N    Scat. Types:   8   7 Mass=14.006740000 B-factor:1.000   
                 Charge=-0.405000000         Polarization=0.000000000  [A^3] (considered a charged atom and no polarization)  Interactions: yes
                 Anisotropic factor:    0.000 [-] (Relative), Radius:    0.700 [A], Framework-atom:  no
Pseudo Atom[   7] Name N_com    Oxidation: +0       Element: -    pdb-name: N    Scat. Types:   0   7 Mass=0.000000000  B-factor:1.000   
                 Charge=0.810000000          Polarization=0.000000000  [A^3] (considered a charged atom and no polarization)  Interactions: yes
                 Anisotropic factor:    0.000 [-] (Relative), Radius:    0.700 [A], Framework-atom:  no
Pseudo Atom[   8] Name Ar       Oxidation: +0       Element: Ar   pdb-name: Ar   Scat. Types:  19  18 Mass=39.948000000 B-factor:1.000   
                 Charge=0.000000000          Polarization=0.000000000  [A^3] (considered a chargeless atom and no polarization)  Interactions: yes
                 Anisotropic factor:    0.000 [-] (Relative), Radius:    0.700 [A], Framework-atom:  no
Pseudo Atom[   9] Name CH4      Oxidation: +0       Element: C    pdb-name: C    Scat. Types:   7   6 Mass=16.042460000 B-factor:1.000   
                 Charge=0.000000000          Polarization=0.000000000  [A^3] (considered a chargeless atom and no polarization)  Interactions: yes
                 Anisotropic factor:    0.000 [-] (Relative), Radius:    1.000 [A], Framework-atom:  no
Pseudo Atom[  10] Name CH3      Oxidation: +0       Element: C    pdb-name: C    Scat. Types:   7   6 Mass=15.034520000 B-factor:1.000   
                 Charge=0.000000000          Polarization=0.000000000  [A^3] (considered a chargeless atom and no polarization)  Interactions: yes
                 Anisotropic factor:    0.000 [-] (Relative), Radius:    1.000 [A], Framework-atom:  no
Pseudo Atom[  11] Name CH2      Oxidation: +0       Element: C    pdb-name: C    Scat. Types:   7   6 Mass=14.026580000 B-factor:1.000   
                 Charge=0.000000000          Polarization=0.000000000  [A^3] (considered a chargeless atom and no polarization)  Interactions: yes
                 Anisotropic factor:    0.000 [-] (Relative), Radius:    1.000 [A], Framework-atom:  no
Pseudo Atom[  12] Name CH       Oxidation: +0       Element: C    pdb-name: C    Scat. Types:   7   6 Mass=13.018640000 B-factor:1.000   
                 Charge=0.000000000          Polarization=0.000000000  [A^3] (considered a chargeless atom and no polarization)  Interactions: yes
                 Anisotropic factor:    0.000 [-] (Relative), Radius:    1.000 [A], Framework-atom:  no
Pseudo Atom[  13] Name C        Oxidation: +0       Element: C    pdb-name: C    Scat. Types:   7   6 Mass=12.000000000 B-factor:1.000   
                 Charge=0.000000000          Polarization=0.000000000  [A^3] (considered a chargeless atom and no polarization)  Interactions: yes
                 Anisotropic factor:    0.000 [-] (Relative), Radius:    1.000 [A], Framework-atom:  no
Pseudo Atom[  14] Name Si       Oxidation: 4+       Element: Si   pdb-name: Si   Scat. Types:  15  14 Mass=28.085498706 B-factor:0.000   
                 Charge=0.000000000  (-na-)  Polarization=5.380000000  [A^3] (considered a chargeless atom and no polarization)  Interactions: yes
                 Anisotropic factor:    0.000 [-] (Absolute), Radius:    1.140 [A], Framework-atom: yes (charge definition not found)
Pseudo Atom[  15] Name O        Oxidation: 2-       Element: O    pdb-name: O    Scat. Types:   9   8 Mass=15.999404927 B-factor:0.000   
                 Charge=0.000000000  (-na-)  Polarization=0.802000000  [A^3] (considered a chargeless atom and no polarization)  Interactions: yes
                 Anisotropic factor:    0.000 [-] (Absolute), Radius:    0.640 [A], Framework-atom: yes (charge definition not found)


Forcefield: ExampleZeolitesForceField
===========================================================================
Minimal distance: 1
CutOff VDW : 12.000000 (144.000000)
CutOff VDW switching on: 10.800000 (116.640000)
CutOff charge-charge : 12.000000 (144.000000)
CutOff charge-charge switching on: 7.800000 (60.840000)
CutOff charge-bonddipole : 12.000000 (144.000000)
CutOff charge-bondipole switching on: 8.400000 (70.560000)
CutOff bonddipole-bonddipole : 12.000000 (144.000000)
CutOff bonddipole-bondipole switching on: 9.000000 (81.000000)
Polarization is neglected
All potentials are shifted to zero at the Cutoff

General mixing rule: Lorentz-Berthelot mixing rules are used FIRST for cross terms
0 cross terms are overwritten using the individual mixing rules from the file 'force_field_mixing_rules.def'
and then 0 terms are overwritten using the specific interactions from the file 'force_field.def'

The force field and all the interactions:
     He -      He [LENNARD_JONES] p_0/k_B:  10.90000 [K], p_1: 2.64000 [A], shift/k_B:  -0.00494280 [K], tailcorrection: no
     He -   C_co2 [LENNARD_JONES] p_0/k_B:  18.06294 [K], p_1: 2.69250 [A], shift/k_B:  -0.00921806 [K], tailcorrection: no
     He -   O_co2 [LENNARD_JONES] p_0/k_B:  30.55837 [K], p_1: 2.82850 [A], shift/k_B:  -0.02095875 [K], tailcorrection: no
     He -    O_o2 [LENNARD_JONES] p_0/k_B:  24.03539 [K], p_1: 2.97000 [A], shift/k_B:  -0.02209340 [K], tailcorrection: no
     He -   O_com [ZERO_POTENTIAL]
     He -    N_n2 [LENNARD_JONES] p_0/k_B:  20.43155 [K], p_1: 2.97300 [A], shift/k_B:  -0.01889482 [K], tailcorrection: no
     He -   N_com [ZERO_POTENTIAL]
     He -      Ar [LENNARD_JONES] p_0/k_B:  36.77449 [K], p_1: 3.01000 [A], shift/k_B:  -0.03662773 [K], tailcorrection: no
     He -     CH4 [LENNARD_JONES] p_0/k_B:  41.56501 [K], p_1: 3.18000 [A], shift/k_B:  -0.05755893 [K], tailcorrection: no
     He -     CH3 [LENNARD_JONES] p_0/k_B:  34.31035 [K], p_1: 3.20000 [A], shift/k_B:  -0.04933343 [K], tailcorrection: no
     He -     CH2 [LENNARD_JONES] p_0/k_B:  24.70627 [K], p_1: 3.30000 [A], shift/k_B:  -0.04272436 [K], tailcorrection: no
     He -      CH [LENNARD_JONES] p_0/k_B:  13.61249 [K], p_1: 3.65500 [A], shift/k_B:  -0.04343978 [K], tailcorrection: no
     He -       C [LENNARD_JONES] p_0/k_B:   2.95296 [K], p_1: 4.51000 [A], shift/k_B:  -0.03319436 [K], tailcorrection: no
     He -      Si [LENNARD_JONES] p_0/k_B:  15.48548 [K], p_1: 2.47000 [A], shift/k_B:  -0.00471027 [K], tailcorrection: no
     He -       O [LENNARD_JONES] p_0/k_B:  24.03539 [K], p_1: 2.97000 [A], shift/k_B:  -0.02209340 [K], tailcorrection: no
  C_co2 -   C_co2 [LENNARD_JONES] p_0/k_B:  29.93300 [K], p_1: 2.74500 [A], shift/k_B:  -0.01715199 [K], tailcorrection: no
  C_co2 -   O_co2 [LENNARD_JONES] p_0/k_B:  50.63981 [K], p_1: 2.88100 [A], shift/k_B:  -0.03878296 [K], tailcorrection: no
  C_co2 -    O_o2 [LENNARD_JONES] p_0/k_B:  39.83025 [K], p_1: 3.02250 [A], shift/k_B:  -0.04066985 [K], tailcorrection: no
  C_co2 -   O_com [ZERO_POTENTIAL]
  C_co2 -    N_n2 [LENNARD_JONES] p_0/k_B:  33.85815 [K], p_1: 3.02550 [A], shift/k_B:  -0.03477820 [K], tailcorrection: no
  C_co2 -   N_com [ZERO_POTENTIAL]
  C_co2 -      Ar [LENNARD_JONES] p_0/k_B:  60.94085 [K], p_1: 3.06250 [A], shift/k_B:  -0.06733139 [K], tailcorrection: no
  C_co2 -     CH4 [LENNARD_JONES] p_0/k_B:  68.87946 [K], p_1: 3.23250 [A], shift/k_B:  -0.10522708 [K], tailcorrection: no
  C_co2 -     CH3 [LENNARD_JONES] p_0/k_B:  56.85740 [K], p_1: 3.25250 [A], shift/k_B:  -0.09013451 [K], tailcorrection: no
  C_co2 -     CH2 [LENNARD_JONES] p_0/k_B:  40.94201 [K], p_1: 3.35250 [A], shift/k_B:  -0.07783014 [K], tailcorrection: no
  C_co2 -      CH [LENNARD_JONES] p_0/k_B:  22.55795 [K], p_1: 3.70750 [A], shift/k_B:  -0.07841175 [K], tailcorrection: no
  C_co2 -       C [LENNARD_JONES] p_0/k_B:   4.89351 [K], p_1: 4.56250 [A], shift/k_B:  -0.05895165 [K], tailcorrection: no
  C_co2 -      Si [LENNARD_JONES] p_0/k_B:  25.66176 [K], p_1: 2.52250 [A], shift/k_B:  -0.00885541 [K], tailcorrection: no
  C_co2 -       O [LENNARD_JONES] p_0/k_B:  39.83025 [K], p_1: 3.02250 [A], shift/k_B:  -0.04066985 [K], tailcorrection: no
  O_co2 -   O_co2 [LENNARD_JONES] p_0/k_B:  85.67100 [K], p_1: 3.01700 [A], shift/k_B:  -0.08652638 [K], tailcorrection: no
  O_co2 -    O_o2 [LENNARD_JONES] p_0/k_B:  67.38370 [K], p_1: 3.15850 [A], shift/k_B:  -0.08959179 [K], tailcorrection: no
  O_co2 -   O_com [ZERO_POTENTIAL]
  O_co2 -    N_n2 [LENNARD_JONES] p_0/k_B:  57.28026 [K], p_1: 3.16150 [A], shift/k_B:  -0.07659340 [K], tailcorrection: no
  O_co2 -   N_com [ZERO_POTENTIAL]
  O_co2 -      Ar [LENNARD_JONES] p_0/k_B: 103.09802 [K], p_1: 3.19850 [A], shift/k_B:  -0.14782408 [K], tailcorrection: no
  O_co2 -     CH4 [LENNARD_JONES] p_0/k_B: 116.52834 [K], p_1: 3.36850 [A], shift/k_B:  -0.22793491 [K], tailcorrection: no
  O_co2 -     CH3 [LENNARD_JONES] p_0/k_B:  96.18975 [K], p_1: 3.38850 [A], shift/k_B:  -0.19495125 [K], tailcorrection: no
  O_co2 -     CH2 [LENNARD_JONES] p_0/k_B:  69.26454 [K], p_1: 3.48850 [A], shift/k_B:  -0.16712968 [K], tailcorrection: no
  O_co2 -      CH [LENNARD_JONES] p_0/k_B:  38.16290 [K], p_1: 3.84350 [A], shift/k_B:  -0.16462890 [K], tailcorrection: no
  O_co2 -       C [LENNARD_JONES] p_0/k_B:   8.27870 [K], p_1: 4.69850 [A], shift/k_B:  -0.11888367 [K], tailcorrection: no
  O_co2 -      Si [LENNARD_JONES] p_0/k_B:  43.41385 [K], p_1: 2.65850 [A], shift/k_B:  -0.02052908 [K], tailcorrection: no
  O_co2 -       O [LENNARD_JONES] p_0/k_B:  67.38370 [K], p_1: 3.15850 [A], shift/k_B:  -0.08959179 [K], tailcorrection: no
   O_o2 -    O_o2 [LENNARD_JONES] p_0/k_B:  53.00000 [K], p_1: 3.30000 [A], shift/k_B:  -0.09165246 [K], tailcorrection: no
   O_o2 -   O_com [ZERO_POTENTIAL]
   O_o2 -    N_n2 [LENNARD_JONES] p_0/k_B:  45.05324 [K], p_1: 3.30300 [A], shift/k_B:  -0.07833594 [K], tailcorrection: no
   O_o2 -   N_com [ZERO_POTENTIAL]
   O_o2 -      Ar [LENNARD_JONES] p_0/k_B:  81.09075 [K], p_1: 3.34000 [A], shift/k_B:  -0.15073728 [K], tailcorrection: no
   O_o2 -     CH4 [LENNARD_JONES] p_0/k_B:  91.65424 [K], p_1: 3.51000 [A], shift/k_B:  -0.22945404 [K], tailcorrection: no
   O_o2 -     CH3 [LENNARD_JONES] p_0/k_B:  75.65712 [K], p_1: 3.53000 [A], shift/k_B:  -0.19596976 [K], tailcorrection: no
   O_o2 -     CH2 [LENNARD_JONES] p_0/k_B:  54.47935 [K], p_1: 3.63000 [A], shift/k_B:  -0.16684428 [K], tailcorrection: no
   O_o2 -      CH [LENNARD_JONES] p_0/k_B:  30.01666 [K], p_1: 3.98500 [A], shift/k_B:  -0.16081332 [K], tailcorrection: no
   O_o2 -       C [LENNARD_JONES] p_0/k_B:   6.51153 [K], p_1: 4.84000 [A], shift/k_B:  -0.11164876 [K], tailcorrection: no
   O_o2 -      Si [LENNARD_JONES] p_0/k_B:  34.14674 [K], p_1: 2.80000 [A], shift/k_B:  -0.02203941 [K], tailcorrection: no
   O_o2 -       O [LENNARD_JONES] p_0/k_B:  53.00000 [K], p_1: 3.30000 [A], shift/k_B:  -0.09165246 [K], tailcorrection: no
  O_com -   O_com [ZERO_POTENTIAL]
  O_com -    N_n2 [ZERO_POTENTIAL]
  O_com -   N_com [ZERO_POTENTIAL]
  O_com -      Ar [ZERO_POTENTIAL]
  O_com -     CH4 [ZERO_POTENTIAL]
  O_com -     CH3 [ZERO_POTENTIAL]
  O_com -     CH2 [ZERO_POTENTIAL]
  O_com -      CH [ZERO_POTENTIAL]
  O_com -       C [ZERO_POTENTIAL]
  O_com -      Si [ZERO_POTENTIAL]
  O_com -       O [ZERO_POTENTIAL]
   N_n2 -    N_n2 [LENNARD_JONES] p_0/k_B:  38.29800 [K], p_1: 3.30600 [A], shift/k_B:  -0.06695388 [K], tailcorrection: no
   N_n2 -   N_com [ZERO_POTENTIAL]
   N_n2 -      Ar [LENNARD_JONES] p_0/k_B:  68.93209 [K], p_1: 3.34300 [A], shift/k_B:  -0.12882767 [K], tailcorrection: no
   N_n2 -     CH4 [LENNARD_JONES] p_0/k_B:  77.91170 [K], p_1: 3.51300 [A], shift/k_B:  -0.19605171 [K], tailcorrection: no
   N_n2 -     CH3 [LENNARD_JONES] p_0/k_B:  64.31317 [K], p_1: 3.53300 [A], shift/k_B:  -0.16743696 [K], tailcorrection: no
   N_n2 -     CH2 [LENNARD_JONES] p_0/k_B:  46.31078 [K], p_1: 3.63300 [A], shift/k_B:  -0.14253201 [K], tailcorrection: no
   N_n2 -      CH [LENNARD_JONES] p_0/k_B:  25.51599 [K], p_1: 3.98800 [A], shift/k_B:  -0.13731894 [K], tailcorrection: no
   N_n2 -       C [LENNARD_JONES] p_0/k_B:   5.53520 [K], p_1: 4.84300 [A], shift/k_B:  -0.09526024 [K], tailcorrection: no
   N_n2 -      Si [LENNARD_JONES] p_0/k_B:  29.02682 [K], p_1: 2.80300 [A], shift/k_B:  -0.01885558 [K], tailcorrection: no
   N_n2 -       O [LENNARD_JONES] p_0/k_B:  45.05324 [K], p_1: 3.30300 [A], shift/k_B:  -0.07833594 [K], tailcorrection: no
  N_com -   N_com [ZERO_POTENTIAL]
  N_com -      Ar [ZERO_POTENTIAL]
  N_com -     CH4 [ZERO_POTENTIAL]
  N_com -     CH3 [ZERO_POTENTIAL]
  N_com -     CH2 [ZERO_POTENTIAL]
  N_com -      CH [ZERO_POTENTIAL]
  N_com -       C [ZERO_POTENTIAL]
  N_com -      Si [ZERO_POTENTIAL]
  N_com -       O [ZERO_POTENTIAL]
     Ar -      Ar [LENNARD_JONES] p_0/k_B: 124.07000 [K], p_1: 3.38000 [A], shift/k_B:  -0.24769804 [K], tailcorrection: no
     Ar -     CH4 [LENNARD_JONES] p_0/k_B: 140.23229 [K], p_1: 3.55000 [A], shift/k_B:  -0.37575039 [K], tailcorrection: no
     Ar -     CH3 [LENNARD_JONES] p_0/k_B: 115.75647 [K], p_1: 3.57000 [A], shift/k_B:  -0.32079374 [K], tailcorrection: no
     Ar -     CH2 [LENNARD_JONES] p_0/k_B:  83.35418 [K], p_1: 3.67000 [A], shift/k_B:  -0.27260937 [K], tailcorrection: no
     Ar -      CH [LENNARD_JONES] p_0/k_B:  45.92592 [K], p_1: 4.02500 [A], shift/k_B:  -0.26122023 [K], tailcorrection: no
     Ar -       C [LENNARD_JONES] p_0/k_B:   9.96273 [K], p_1: 4.88000 [A], shift/k_B:  -0.17943247 [K], tailcorrection: no
     Ar -      Si [LENNARD_JONES] p_0/k_B:  52.24500 [K], p_1: 2.84000 [A], shift/k_B:  -0.03671563 [K], tailcorrection: no
     Ar -       O [LENNARD_JONES] p_0/k_B:  81.09075 [K], p_1: 3.34000 [A], shift/k_B:  -0.15073728 [K], tailcorrection: no
    CH4 -     CH4 [LENNARD_JONES] p_0/k_B: 158.50000 [K], p_1: 3.72000 [A], shift/k_B:  -0.56217796 [K], tailcorrection: no
    CH4 -     CH3 [LENNARD_JONES] p_0/k_B: 130.83577 [K], p_1: 3.74000 [A], shift/k_B:  -0.47921501 [K], tailcorrection: no
    CH4 -     CH2 [LENNARD_JONES] p_0/k_B:  94.21253 [K], p_1: 3.84000 [A], shift/k_B:  -0.40420524 [K], tailcorrection: no
    CH4 -      CH [LENNARD_JONES] p_0/k_B:  51.90857 [K], p_1: 4.19500 [A], shift/k_B:  -0.37827707 [K], tailcorrection: no
    CH4 -       C [LENNARD_JONES] p_0/k_B:  11.26055 [K], p_1: 5.05000 [A], shift/k_B:  -0.24880626 [K], tailcorrection: no
    CH4 -      Si [LENNARD_JONES] p_0/k_B:  59.05083 [K], p_1: 3.01000 [A], shift/k_B:  -0.05881516 [K], tailcorrection: no
    CH4 -       O [LENNARD_JONES] p_0/k_B:  91.65424 [K], p_1: 3.51000 [A], shift/k_B:  -0.22945404 [K], tailcorrection: no
    CH3 -     CH3 [LENNARD_JONES] p_0/k_B: 108.00000 [K], p_1: 3.76000 [A], shift/k_B:  -0.40842485 [K], tailcorrection: no
    CH3 -     CH2 [LENNARD_JONES] p_0/k_B:  77.76889 [K], p_1: 3.86000 [A], shift/k_B:  -0.34420794 [K], tailcorrection: no
    CH3 -      CH [LENNARD_JONES] p_0/k_B:  42.84857 [K], p_1: 4.21500 [A], shift/k_B:  -0.32127575 [K], tailcorrection: no
    CH3 -       C [LENNARD_JONES] p_0/k_B:   9.29516 [K], p_1: 5.07000 [A], shift/k_B:  -0.21028090 [K], tailcorrection: no
    CH3 -      Si [LENNARD_JONES] p_0/k_B:  48.74423 [K], p_1: 3.03000 [A], shift/k_B:  -0.05051716 [K], tailcorrection: no
    CH3 -       O [LENNARD_JONES] p_0/k_B:  75.65712 [K], p_1: 3.53000 [A], shift/k_B:  -0.19596976 [K], tailcorrection: no
    CH2 -     CH2 [LENNARD_JONES] p_0/k_B:  56.00000 [K], p_1: 3.96000 [A], shift/k_B:  -0.28891522 [K], tailcorrection: no
    CH2 -      CH [LENNARD_JONES] p_0/k_B:  30.85450 [K], p_1: 4.31500 [A], shift/k_B:  -0.26621710 [K], tailcorrection: no
    CH2 -       C [LENNARD_JONES] p_0/k_B:   6.69328 [K], p_1: 5.17000 [A], shift/k_B:  -0.17012512 [K], tailcorrection: no
    CH2 -      Si [LENNARD_JONES] p_0/k_B:  35.09986 [K], p_1: 3.13000 [A], shift/k_B:  -0.04419846 [K], tailcorrection: no
    CH2 -       O [LENNARD_JONES] p_0/k_B:  54.47935 [K], p_1: 3.63000 [A], shift/k_B:  -0.16684428 [K], tailcorrection: no
     CH -      CH [LENNARD_JONES] p_0/k_B:  17.00000 [K], p_1: 4.67000 [A], shift/k_B:  -0.23540268 [K], tailcorrection: no
     CH -       C [LENNARD_JONES] p_0/k_B:   3.68782 [K], p_1: 5.52500 [A], shift/k_B:  -0.13918063 [K], tailcorrection: no
     CH -      Si [LENNARD_JONES] p_0/k_B:  19.33908 [K], p_1: 3.48500 [A], shift/k_B:  -0.04638359 [K], tailcorrection: no
     CH -       O [LENNARD_JONES] p_0/k_B:  30.01666 [K], p_1: 3.98500 [A], shift/k_B:  -0.16081332 [K], tailcorrection: no
      C -       C [LENNARD_JONES] p_0/k_B:   0.80000 [K], p_1: 6.38000 [A], shift/k_B:  -0.07064236 [K], tailcorrection: no
      C -      Si [LENNARD_JONES] p_0/k_B:   4.19524 [K], p_1: 4.34000 [A], shift/k_B:  -0.03747091 [K], tailcorrection: no
      C -       O [LENNARD_JONES] p_0/k_B:   6.51153 [K], p_1: 4.84000 [A], shift/k_B:  -0.11164876 [K], tailcorrection: no
     Si -      Si [LENNARD_JONES] p_0/k_B:  22.00000 [K], p_1: 2.30000 [A], shift/k_B:  -0.00436255 [K], tailcorrection: no
     Si -       O [LENNARD_JONES] p_0/k_B:  34.14674 [K], p_1: 2.80000 [A], shift/k_B:  -0.02203941 [K], tailcorrection: no
      O -       O [LENNARD_JONES] p_0/k_B:  53.00000 [K], p_1: 3.30000 [A], shift/k_B:  -0.09165246 [K], tailcorrection: no


MoleculeDefinitions:
===========================================================================
Component 0 [methane] (Adsorbate molecule)

	MoleculeDefinitions: ExampleDefinitions
	Component contains no atoms with charge
	Component contains no atoms with point dipoles (polarization)
	Component has a net charge of 0.000000

	Ideal chain Rosenbluth weight: 1
	Ideal chain total energy: 0.000000

	Critical temparure [K]: 190.564000
	Critical pressure [Pa]: 4599200.000000
	Acentric factor [-]: 0.011420

	RXMC partition factor ln(q/V) [ln(A^(-3))]:       0.0000000000

	Vapour=stable, Liquid=metastable

	MolFraction:           1.0000000000 [-]
	Compressibility:       0.9978279390 [-]

	Density of the bulk fluid phase:       0.6445546490 [kg/m^3]

	Binary mixture EOS parameters:  (0): 0.000000

	Amount of excess molecules:       0.2993091154 [-]

	Conversion factor molecules/unit cell -> mol/kg:       0.1733675050 [-]
	Conversion factor molecules/unit cell -> mg/g:       2.7812412648 [-]
	Conversion factor molecules/unit cell -> cm^3 STP/gr:       3.8858550532 [-]
	Conversion factor molecules/unit cell -> cm^3 STP/cm^3:       6.9803262157 [-]
	Conversion factor mol/kg -> cm^3 STP/gr:      22.4139757476 [-]
	Conversion factor mol/kg -> cm^3 STP/cm^3:      40.2631751230 [-]

	Partial pressure:    100000.00000000000000 [Pa]
	                        750.00000000000000 [Torr]
	                          1.00000000000000 [bar]
	                          0.98692326671601 [atm]

	Fugacity coefficient:       0.9978285867 [-]

	Partial fugacity:     99782.85867089460953 [Pa]
	                        748.37144003170954 [Torr]
	                          0.99782858670895 [bar]
	                          0.98478024841742 [atm]

	Molecule contains 1 number of atoms
		atom:    0  is of type:    9 [       CH4] (group: 0)

	Molecule contains 0 chirality centers

	Molecule contains 1 number of groups

		group: 0 containing: 1 elements
		-------------------------------------------------
		the group is modelled as flexible, i.e. no constraints
		Mass: 16.042460 [a.u.]
		Mass: 0.624508 [kg/m^3]

		Rotational Degrees of freedom: 0
		Diagonalized inertia vector:       0.0000000000
		                                   0.0000000000
		                                   0.0000000000
		element: 0 atom: 0 [       CH4] Charge:  0.000000 Anisotropy: 0.000000 Connectivity: 0 ()

		Dipole:           0.0000000000 [D]
		Quadrupole:       0.0000000000       0.0000000000       0.0000000000 [D Angstrom]
		Quadrupole tensor [D Angstrom]
				       0.0000000000       0.0000000000       0.0000000000
				       0.0000000000       0.0000000000       0.0000000000
				       0.0000000000       0.0000000000       0.0000000000

	Starting bead for growth               : 0

	Degrees of freedom                     : 0
	Translational degrees of freedom       : 0
	Rotational degrees of freedom          : 0
	Vibrational degrees of freedom         : 0
	Constraint degrees of freedom          : 0

	Number of atoms                        : 1

	Number of constraint bonds             : 0
	Number of constraint bends             : 0
	Number of constraint inversion bends   : 0
	Number of constraint torsions          : 0
	Number of constraint improper torsions : 0
	Number of constraint improper torsions : 0

	Number of bonds                        : 0
	Number of Urey-Bradleys                : 0
	Number of bends                        : 0
	Number of inversion bends              : 0
	Number of torsions                     : 0
	Number of improper torsions            : 0
	Number of improper torsions            : 0

	Number of bond/bond cross terms        : 0
	Number of bond/bend cross terms        : 0
	Number of bend/bend cross terms        : 0
	Number of stretch/torsion cross terms  : 0
	Number of bend/torsion cross terms     : 0

	Number of charges                      : 0
	Number of bond-dipoles                 : 0

	Number of intra Van der Waals                             : 0
	Number of intra charge-charge Coulomb                     : 0
	Number of intra charge-bonddipole Coulomb                 : 0
	Number of intra bonddipole-bonddipole Coulomb             : 0

	Number of excluded intra charge-charge Coulomb                     : 0
	Number of excluded intra charge-bonddipole Coulomb                 : 0
	Number of excluded intra bonddipole-bonddipole Coulomb             : 0

	Number of cbmc-config moves                               : 0

	Particle Moves:             
		ProbabilityTranslationMove:                  25.000000
			TranslationDirection:      XYZ
		Percentage of random translation moves:            0.000000
		Percentage of rotation moves:                      0.000000
		Percentage of random rotation moves:               0.000000
		Percentage of partial reinsertion moves:           0.000000
		Percentage of reinsertion moves:                   25.000000
		Percentage of reinsertion-in-place moves:          0.000000
		Percentage of reinsertion-in-plane moves:          0.000000
		Percentage of identity-change moves:               0.000000
		Percentage of swap (insert/delete) moves:          50.000000
		Percentage of CF swap lambda moves:                0.000000
		Percentage of CB/CFMC swap lambda moves:           0.000000
		Percentage of Widom insertion moves:               0.000000
		Percentage of CF-Widom insertion moves:            0.000000
		Percentage of Gibbs Widom insertion moves:         0.000000
		Percentage of surface-area moves:                  0.000000
		Percentage of Gibbs particle-transfer moves:       0.000000
		Percentage of Gibbs identity-change moves:         0.000000
		Percentage of CF Gibbs lambda-transfer moves:      0.000000
		Percentage of CB/CFMC Gibbs lambda-transfer moves: 0.000000
		Percentage of exchange frac./int. particle moves:  0.000000
		Percentage of fractional mol. to other box moves:  0.000000
		Percentage of lambda-change moves:                 0.000000
		Percentage of fractional to integer moves:         0.000000

	System Moves:
		Percentage of parallel-tempering moves:            0.000000
		Percentage of hyper-parallel-tempering moves:      0.000000
		Percentage of parallel-mol-fraction moves:         0.000000
			   Component A: 0 B: 1
		Percentage of chiral inversion moves:              0.000000
		Percentage of Hybrid-NVE moves:                    0.000000
		Percentage of Hybrid-NPH moves:                    0.000000
		Percentage of Hybrid-NPHPR moves:                  0.000000
		Percentage of volume-change moves:                 0.000000
		Percentage of box-shape-change moves:              0.000000
		Percentage of Gibbs volume-change moves:           0.000000
		Percentage of framework-change moves:              0.000000
		Percentage of framework-shift moves:               0.000000
		Percentage of reactive MC moves:                   0.000000

	Moves are restricted: No
	No biased sampling used for this component


	number of identity-config changes: 1
	--------------------------------------------
	nr fixed 1: 0 

	Number of pockets blocked in a unitcell: 0
		Pockets are NOT blocked for this component



Framework Status
===========================================================================
Lowenstein's rule obeyed by framework
	Framework is modelled as: rigid

	Number of charges:                               0
	Number of bonddipoles:                           0


System Properties
===========================================================================
Unit cell size: 20.022000 19.899000 13.383000
Cell angles (radians)  alpha: 1.570796 beta: 1.570796 gamma: 1.570796
Cell angles (degrees)  alpha: 90.000000 beta: 90.000000 gamma: 90.000000
Number of unitcells [a]: 2
Number of unitcells [b]: 2
Number of unitcells [c]: 2

RECTANGULAR Boundary conditions: alpha=beta=gamma=90 degrees

Cartesian axis A is collinear with crystallographic axis a
Cartesian axis B is collinear with (axb)xA
Cartesian axis C is collinear with (axb)

lengths of cell vectors:
 40.04400  39.79800  26.76600
cosines of cell angles:
  0.00000   0.00000   0.00000
perpendicular cell widths:
 40.04400  39.79800  26.76600
volume of the cell: 42656.200983791998 (A^3)

Orthogonalization matrix Box
Transforms fractional coordinates abc into orthonormal Cartesian coordinates xyz
Deorthogonalization matrix InverseBox
Transforms orthonormal Cartesian coordinates xyz into fractional coordinates xyz

Box[0]:
	   40.044000000000     0.000000000000     0.000000000000
	    0.000000000000    39.798000000000     0.000000000000
	    0.000000000000     0.000000000000    26.766000000000

Inverse box[0]:
	    0.024972530217    -0.000000000000    -0.000000000000
	    0.000000000000     0.025126890799    -0.000000000000
	    0.000000000000     0.000000000000     0.037360830905


Unitcell box[0]:
	   20.022000000000     0.000000000000     0.000000000000
	    0.000000000000    19.899000000000     0.000000000000
	    0.000000000000     0.000000000000    13.383000000000

Unitcell inverse box[0]:
	    0.049945060434    -0.000000000000    -0.000000000000
	    0.000000000000     0.050253781597    -0.000000000000
	    0.000000000000     0.000000000000     0.074721661810

lengths of cell vectors (inverse box):
  0.02497   0.02513   0.03736
cosines of cell angles (inverse box):
 -0.00000  -0.00000  -0.00000
perpendicular cell widths (inverse):
  0.02497   0.02513   0.03736
volume of the cell: 42656.200983791998 (A^3)

No replicas are used
Framework is simulated as 'rigid'
Number of framework atoms: 2304
Number of framework atoms in the unit cell: 288
Framework Mass: 46144.748974602669 [g/mol]
Framework Density:  1796.342406023652 [kg/m^3]    0.5566867411506 [cm^3/g]
Helium void fraction:    0.29000000
Available pore volume: 12370.29828530 [A^3]    0.16143915 [cm^3/g]
Conversion factor from molecule/unit cell -> kmol/m^3: 0.0389284, kmol/m^3 accesible pore volume: 0.134236

Number Of Frameworks (per system): 1
----------------------------------------------------------------------
Framework name: MFI_SI
Citation:
	author name:        'H. van Koningsveld, H. van Bekkum, and J. C. Jansen'
	title:              'On the location and disorder of the tetrapropylammonium (TPA) ion in zeolite ZSM-5 with improved framework accuracy'
	journal abbrev.:    'Acta Cryst.'
	journal volume:     B43
	first page:         127
	last page:          132
	year:               1987
Space group: 62
	Identifier: 292
	short international Hermann-Mauguin symbol: P n m a
	long international Hermann-Mauguin symbol: P 21/n 21/m 21/a
	Hall symbol: -P 2ac 2n
	Number of lattice translations: 1 [ (0,0,0) ]
	acentric/centric: acentric
	chiral: yes
	enantiomorphic: no
	number of operators: 8
		'x,y,z'
		'-x+1/2,-y,z+1/2'
		'-x,y+1/2,-z'
		'x+1/2,-y+1/2,-z+1/2'
		'-x,-y,-z'
		'x+1/2,y,-z+1/2'
		'x,-y+1/2,z'
		'-x+1/2,y+1/2,z+1/2'
Framework is simulated as 'rigid'
Shift: 0.000000 0.000000 0.000000
Number of framework atoms: 2304
Number of asymmetric atoms: 38
Number of free framework atoms: 0
Number of fixed framework atoms: 2304
Number of framework atoms in the unit cell: 288
Framework Mass: 46144.748974602669 [g/mol]
Framework Density:  1796.342406023652 [kg/m^3]
Framework has net charge: 0.000000
         largest charge : 0.000000
         smallest charge: 0.000000

Using FULL Host-guest interaction calculation (for testing purposes)

Current Atom Status
===========================================================================
Number of framework atoms        : 2304
Number of cations molecules      : 0
Number of adsorbate molecules    : 4
Component    0 :    4 molecules
Pseudo Atoms    0 [    UNIT]:    0 atoms
Pseudo Atoms    1 [      He]:    0 atoms
Pseudo Atoms    2 [   C_co2]:    0 atoms
Pseudo Atoms    3 [   O_co2]:    0 atoms
Pseudo Atoms    4 [    O_o2]:    0 atoms
Pseudo Atoms    5 [   O_com]:    0 atoms
Pseudo Atoms    6 [    N_n2]:    0 atoms
Pseudo Atoms    7 [   N_com]:    0 atoms
Pseudo Atoms    8 [      Ar]:    0 atoms
Pseudo Atoms    9 [     CH4]:    4 atoms
Pseudo Atoms   10 [     CH3]:    0 atoms
Pseudo Atoms   11 [     CH2]:    0 atoms
Pseudo Atoms   12 [      CH]:    0 atoms
Pseudo Atoms   13 [       C]:    0 atoms
Pseudo Atoms   14 [      Si]:  768 atoms
Pseudo Atoms   15 [       O]: 1536 atoms


Current (initial full energy) Energy Status
===========================================================================

Internal energy:
Host stretch energy:                                            0.00000000
Host UreyBradley energy:                                        0.00000000
Host bend energy:                                               0.00000000
Host inversion-bend energy:                                     0.00000000
Host torsion energy:                                            0.00000000
Host improper torsion energy:                                   0.00000000
Host out-of-plane energy:                                       0.00000000
Host stretch/stretch energy:                                    0.00000000
Host bend/bend energy:                                          0.00000000
Host stretch/bend energy:                                       0.00000000
Host stretch/torsion energy:                                    0.00000000
Host bend/torsion energy:                                       0.00000000

Adsorbate stretch energy:                                       0.00000000
Adsorbate UreyBradley energy:                                   0.00000000
Adsorbate bend energy:                                          0.00000000
Adsorbate inversion-bend energy:                                0.00000000
Adsorbate torsion energy:                                       0.00000000
Adsorbate improper torsion energy:                              0.00000000
Adsorbate out-of-plane energy:                                  0.00000000
Adsorbate stretch/stretch energy:                               0.00000000
Adsorbate bend/bend energy:                                     0.00000000
Adsorbate stretch/bend energy:                                  0.00000000
Adsorbate stretch/torsion energy:                               0.00000000
Adsorbate bend/torsion energy:                                  0.00000000
Adsorbate intra VDW energy:                                     0.00000000
Adsorbate intra charge-charge Coulomb energy:                   0.00000000
Adsorbate intra charge-bonddipole Coulomb energy:               0.00000000
Adsorbate intra bonddipole-bonddipole Coulomb energy:           0.00000000

Cation stretch energy:                                          0.00000000
Cation UreyBradley energy:                                      0.00000000
Cation bend energy:                                             0.00000000
Cation inversion-bend energy:                                   0.00000000
Cation torsion energy:                                          0.00000000
Cation improper torsion energy:                                 0.00000000
Cation out-of-plane energy:                                     0.00000000
Cation stretch/stretch energy:                                  0.00000000
Cation bend/bend energy:                                        0.00000000
Cation stretch/bend energy:                                     0.00000000
Cation stretch/torsion energy:                                  0.00000000
Cation bend/torsion energy:                                     0.00000000
Cation intra VDW energy:                                        0.00000000
Cation intra charge-charge Coulomb energy:                      0.00000000
Cation intra charge-bonddipole Coulomb energy:                  0.00000000
Cation intra bonddipole-bonddipole Coulomb energy:              0.00000000

Host/Host energy:                                             0.00000000
	Host/Host VDW energy:                                         0.00000000
	Host/Host Coulomb energy:                                     0.00000000
	Host/Host charge-charge Real energy:                          0.00000000
	Host/Host charge-charge Fourier energy:                       0.00000000
	Host/Host charge-bonddipole Real energy:                      0.00000000
	Host/Host charge-bonddipole Fourier energy:                   0.00000000
	Host/Host bondipole-bonddipole Real energy:                   0.00000000
	Host/Host bondipole-bonddipole Fourier energy:                0.00000000

Host/Adsorbate energy:                                    -7594.20872963
	Host/Adsorbate VDW energy:                                -7594.20872963
	Host/Adsorbate Coulomb energy:                                0.00000000
	Host/Adsorbate charge-charge Real energy:                     0.00000000
	Host/Adsorbate charge-charge Fourier energy:                  0.00000000
	Host/Adsorbate charge-bonddipole Real energy:                 0.00000000
	Host/Adsorbate charge-bonddipole Fourier energy:              0.00000000
	Host/Adsorbate bondipole-bonddipole Real energy:              0.00000000
	Host/Adsorbate bondipole-bonddipole Fourier energy:           0.00000000

Host/Cation energy:                                           0.00000000
	Host/Cation VDW energy:                                       0.00000000
	Host/Cation Coulomb energy:                                   0.00000000
	Host/Cation charge-charge Real energy:                        0.00000000
	Host/Cation charge-charge Fourier energy:                     0.00000000
	Host/Cation charge-bonddipole Real energy:                    0.00000000
	Host/Cation charge-bonddipole Fourier energy:                 0.00000000
	Host/Cation bondipole-bonddipole Real energy:                 0.00000000
	Host/Cation bondipole-bonddipole Fourier energy:              0.00000000

Adsorbate/Adsorbate energy:                                        0.00000000
	Adsorbate/Adsorbate VDW energy:                                    0.00000000
	Adsorbate/Adsorbate Coulomb energy:                                0.00000000
	Adsorbate/Adsorbate charge-charge Real energy:                     0.00000000
	Adsorbate/Adsorbate charge-charge Fourier energy:                  0.00000000
	Adsorbate/Adsorbate charge-bonddipole Real energy:                 0.00000000
	Adsorbate/Adsorbate charge-bonddipole Fourier energy:              0.00000000
	Adsorbate/Adsorbate bondipole-bonddipole Real energy:              0.00000000
	Adsorbate/Adsorbate bondipole-bonddipole Fourier energy:           0.00000000

Adsorbate/Cation energy:                                           0.00000000
	Adsorbate/Cation VDW energy:                                       0.00000000
	Adsorbate/Cation Coulomb energy:                                   0.00000000
	Adsorbate/Cation charge-charge Real energy:                        0.00000000
	Adsorbate/Cation charge-charge Fourier energy:                     0.00000000
	Adsorbate/Cation charge-bonddipole Real energy:                    0.00000000
	Adsorbate/Cation charge-bonddipole Fourier energy:                 0.00000000
	Adsorbate/Cation bondipole-bonddipole Real energy:                 0.00000000
	Adsorbate/Cation bondipole-bonddipole Fourier energy:              0.00000000

Cation/Cation energy:                                           0.00000000
	Cation/Cation VDW energy:                                       0.00000000
	Cation/Cation Coulomb energy:                                   0.00000000
	Cation/Cation charge-charge Real energy:                        0.00000000
	Cation/Cation charge-charge Fourier energy:                     0.00000000
	Cation/Cation charge-bonddipole Real energy:                    0.00000000
	Cation/Cation charge-bonddipole Fourier energy:                 0.00000000
	Cation/Cation bondipole-bonddipole Real energy:                 0.00000000
	Cation/Cation bondipole-bonddipole Fourier energy:              0.00000000

Polarization energy:
	Host polarization energy:                                     0.00000000
	Adsorbate polarization energy:                                0.00000000
	Cation polarization energy:                                   0.00000000
	Host back-polarization energy:                                     0.00000000
	Adsorbate back-polarization energy:                                0.00000000
	Cation back-polarization energy:                                   0.00000000

Tail-correction energy:                                       0.00000000

Distance constraints energy:                                  0.00000000
Angle constraints energy:                                     0.00000000
Dihedral constraints energy:                                  0.00000000
Inversion-bend constraints energy:                            0.00000000
Out-of-plane distance constraints energy:                     0.00000000
Exclusion constraints energy:                                 0.00000000

===================================================================
Total energy: -7594.208729631940
	Total Van der Waals: -7594.208730
	Total Coulomb: 0.000000

	Total Polarization: 0.000000







+++++++++++++++++++++++++++++++++++++++++++++++++++++++++++++++++++++++++
Starting simulation
+++++++++++++++++++++++++++++++++++++++++++++++++++++++++++++++++++++++++

[Init] Current cycle: 0 out of 5000
========================================================================================================

Net charge: 0 (F: 0, A: 0, C: 0)
Current Box:  40.04400   0.00000   0.00000 [A]
               0.00000  39.79800   0.00000 [A]
               0.00000   0.00000  26.76600 [A]
Box-lengths:  40.04400  39.79800  26.76600 Box-angles:   90.00000  90.00000  90.00000 [degrees]
Volume: 42656.20098 [A^3]

Loadings per component:
----------------------------------------------------------------------------------------------------------------------------------------------------
Component 0 (methane), current number of integer/fractional/reaction molecules: 4/0/0, density:   2.49803 [kg/m^3]
	absolute adsorption:   0.50000 [mol/uc],         0.0867 [mol/kg],              1.3906 [mg/g]
	                                                 1.9429 [cm^3 STP/g],          3.4902 [cm^3 STP/cm^3]
	excess adsorption:     0.46259 [mol/uc],         0.0802 [mol/kg],              1.2866 [mg/g]
	                                                 1.7975 [cm^3 STP/g],          3.2290 [cm^3 STP/cm^3]
----------------------------------------------------------------------------------------------------------------------------------------------------
Degrees of freedom: 12 0 12 0
Number of Framework-atoms:   2304
Number of Adsorbates:           4 (4 integer, 0 fractional, 0 reaction)
Number of Cations:              0 (0 integer, 0 fractional, 0 reaction

Current total potential energy:             -7594.2087296319 [K]
	Current Host-Host energy:                     0.0000000000 [K]
	Current Host-Adsorbate energy:            -7594.2087296319 [K]
	Current Host-Cation energy:                   0.0000000000 [K]
	Current Adsorbate-Adsorbate energy:           0.0000000000 [K]
	Current Cation-Cation energy:                 0.0000000000 [K]
	Current Adsorbate-Cation energy:              0.0000000000 [K]



[Init] Current cycle: 1000 out of 5000
========================================================================================================

Net charge: 0 (F: 0, A: 0, C: 0)
Current Box:  40.04400   0.00000   0.00000 [A]
               0.00000  39.79800   0.00000 [A]
               0.00000   0.00000  26.76600 [A]
Box-lengths:  40.04400  39.79800  26.76600 Box-angles:   90.00000  90.00000  90.00000 [degrees]
Volume: 42656.20098 [A^3]

Loadings per component:
----------------------------------------------------------------------------------------------------------------------------------------------------
Component 0 (methane), current number of integer/fractional/reaction molecules: 22/0/0, density:  13.73918 [kg/m^3]
	absolute adsorption:   2.75000 [mol/uc],         0.4768 [mol/kg],              7.6484 [mg/g]
	                                                10.6861 [cm^3 STP/g],         19.1959 [cm^3 STP/cm^3]
	excess adsorption:     2.71259 [mol/uc],         0.4703 [mol/kg],              7.5444 [mg/g]
	                                                10.5407 [cm^3 STP/g],         18.9347 [cm^3 STP/cm^3]
----------------------------------------------------------------------------------------------------------------------------------------------------
Degrees of freedom: 66 0 66 0
Number of Framework-atoms:   2304
Number of Adsorbates:          22 (22 integer, 0 fractional, 0 reaction)
Number of Cations:              0 (0 integer, 0 fractional, 0 reaction

Current total potential energy:            -42586.7644588261 [K]
	Current Host-Host energy:                     0.0000000000 [K]
	Current Host-Adsorbate energy:           -42197.7257425442 [K]
	Current Host-Cation energy:                   0.0000000000 [K]
	Current Adsorbate-Adsorbate energy:        -389.0387162817 [K]
	Current Cation-Cation energy:                 0.0000000000 [K]
	Current Adsorbate-Cation energy:              0.0000000000 [K]



[Init] Current cycle: 2000 out of 5000
========================================================================================================

Net charge: 0 (F: 0, A: 0, C: 0)
Current Box:  40.04400   0.00000   0.00000 [A]
               0.00000  39.79800   0.00000 [A]
               0.00000   0.00000  26.76600 [A]
Box-lengths:  40.04400  39.79800  26.76600 Box-angles:   90.00000  90.00000  90.00000 [degrees]
Volume: 42656.20098 [A^3]

Loadings per component:
----------------------------------------------------------------------------------------------------------------------------------------------------
Component 0 (methane), current number of integer/fractional/reaction molecules: 22/0/0, density:  13.73918 [kg/m^3]
	absolute adsorption:   2.75000 [mol/uc],         0.4768 [mol/kg],              7.6484 [mg/g]
	                                                10.6861 [cm^3 STP/g],         19.1959 [cm^3 STP/cm^3]
	excess adsorption:     2.71259 [mol/uc],         0.4703 [mol/kg],              7.5444 [mg/g]
	                                                10.5407 [cm^3 STP/g],         18.9347 [cm^3 STP/cm^3]
----------------------------------------------------------------------------------------------------------------------------------------------------
Degrees of freedom: 66 0 66 0
Number of Framework-atoms:   2304
Number of Adsorbates:          22 (22 integer, 0 fractional, 0 reaction)
Number of Cations:              0 (0 integer, 0 fractional, 0 reaction

Current total potential energy:            -45530.6646765351 [K]
	Current Host-Host energy:                     0.0000000000 [K]
	Current Host-Adsorbate energy:           -44804.1581947521 [K]
	Current Host-Cation energy:                   0.0000000000 [K]
	Current Adsorbate-Adsorbate energy:        -726.5064817829 [K]
	Current Cation-Cation energy:                 0.0000000000 [K]
	Current Adsorbate-Cation energy:              0.0000000000 [K]



[Init] Current cycle: 3000 out of 5000
========================================================================================================

Net charge: 0 (F: 0, A: 0, C: 0)
Current Box:  40.04400   0.00000   0.00000 [A]
               0.00000  39.79800   0.00000 [A]
               0.00000   0.00000  26.76600 [A]
Box-lengths:  40.04400  39.79800  26.76600 Box-angles:   90.00000  90.00000  90.00000 [degrees]
Volume: 42656.20098 [A^3]

Loadings per component:
----------------------------------------------------------------------------------------------------------------------------------------------------
Component 0 (methane), current number of integer/fractional/reaction molecules: 30/0/0, density:  18.73525 [kg/m^3]
	absolute adsorption:   3.75000 [mol/uc],         0.6501 [mol/kg],             10.4297 [mg/g]
	                                                14.5720 [cm^3 STP/g],         26.1762 [cm^3 STP/cm^3]
	excess adsorption:     3.71259 [mol/uc],         0.6436 [mol/kg],             10.3256 [mg/g]
	                                                14.4266 [cm^3 STP/g],         25.9151 [cm^3 STP/cm^3]
----------------------------------------------------------------------------------------------------------------------------------------------------
Degrees of freedom: 90 0 90 0
Number of Framework-atoms:   2304
Number of Adsorbates:          30 (30 integer, 0 fractional, 0 reaction)
Number of Cations:              0 (0 integer, 0 fractional, 0 reaction

Current total potential energy:            -61992.6457830395 [K]
	Current Host-Host energy:                     0.0000000000 [K]
	Current Host-Adsorbate energy:           -60682.1553411023 [K]
	Current Host-Cation energy:                   0.0000000000 [K]
	Current Adsorbate-Adsorbate energy:       -1310.4904419376 [K]
	Current Cation-Cation energy:                 0.0000000000 [K]
	Current Adsorbate-Cation energy:              0.0000000000 [K]



[Init] Current cycle: 4000 out of 5000
========================================================================================================

Net charge: 0 (F: 0, A: 0, C: 0)
Current Box:  40.04400   0.00000   0.00000 [A]
               0.00000  39.79800   0.00000 [A]
               0.00000   0.00000  26.76600 [A]
Box-lengths:  40.04400  39.79800  26.76600 Box-angles:   90.00000  90.00000  90.00000 [degrees]
Volume: 42656.20098 [A^3]

Loadings per component:
----------------------------------------------------------------------------------------------------------------------------------------------------
Component 0 (methane), current number of integer/fractional/reaction molecules: 22/0/0, density:  13.73918 [kg/m^3]
	absolute adsorption:   2.75000 [mol/uc],         0.4768 [mol/kg],              7.6484 [mg/g]
	                                                10.6861 [cm^3 STP/g],         19.1959 [cm^3 STP/cm^3]
	excess adsorption:     2.71259 [mol/uc],         0.4703 [mol/kg],              7.5444 [mg/g]
	                                                10.5407 [cm^3 STP/g],         18.9347 [cm^3 STP/cm^3]
----------------------------------------------------------------------------------------------------------------------------------------------------
Degrees of freedom: 66 0 66 0
Number of Framework-atoms:   2304
Number of Adsorbates:          22 (22 integer, 0 fractional, 0 reaction)
Number of Cations:              0 (0 integer, 0 fractional, 0 reaction

Current total potential energy:            -44446.5912894470 [K]
	Current Host-Host energy:                     0.0000000000 [K]
	Current Host-Adsorbate energy:           -43858.3410625673 [K]
	Current Host-Cation energy:                   0.0000000000 [K]
	Current Adsorbate-Adsorbate energy:        -588.2502268796 [K]
	Current Cation-Cation energy:                 0.0000000000 [K]
	Current Adsorbate-Cation energy:              0.0000000000 [K]



Average Properties at Current cycle: 0 out of 25000
========================================================================================

Framework surface area:       0.0000000000 [m^2/g]        0.0000000000 [m^2/cm^3]       0.0000000000 [A^2]
	Framework 0 individual surface area:       0.0000000000 [m^2/g]        0.0000000000 [m^2/cm^3]       0.0000000000 [A^2]
	Cation surface area:                       0.0000000000 [m^2/g]        0.0000000000 [m^2/cm^3]       0.0000000000 [A^2]
Compressibility:       0.0000000000 [-]
Henry coefficients
	Component 0: 0 [mol/kg/Pa] (Rosenbluth factor new: 0 [-])
Energy <U_gh>_1-<U_h>_0 from Widom


Current cycle: 0 out of 25000
========================================================================================================

Net charge: 0 (F: 0, A: 0, C: 0)
Current Box:  40.04400   0.00000   0.00000 [A]   Average Box:  40.04400   0.00000   0.00000 [A]
               0.00000  39.79800   0.00000 [A]                  0.00000  39.79800   0.00000 [A]
               0.00000   0.00000  26.76600 [A]                  0.00000   0.00000  26.76600 [A]
Box-lengths:   40.04400  39.79800  26.76600 [A] Average:  40.04400  39.79800  26.76600 [A]
Box-angles:   90.00000  90.00000  90.00000 [degrees] Average:  90.00000  90.00000  90.00000 [degrees]
Volume: 42656.20098 [A^3] Average Volume: 42656.20098 [A^3]

Loadings per component:
----------------------------------------------------------------------------------------------------------------------------------------------------
Component 0 (methane), current number of integer/fractional/reaction molecules: 26/0/0 (avg.  26.00000), density:  16.23721 (avg.  16.23721) [kg/m^3]
	absolute adsorption:   3.25000 (avg.   3.25000) [mol/uc],   0.5634443914 (avg.   0.5634443914) [mol/kg],   9.0390341105 (avg.   9.0390341105) [mg/g]
	                      12.6290289228 (avg.  12.6290289228) [cm^3 STP/g],   22.6860602010 (avg.  22.6860602010) [cm^3 STP/cm^3]
	excess adsorption:     3.2125863606 (avg.   3.2125863606) [mol/uc],   0.5569580820 (avg.   0.5569580820) [mol/kg],   8.9349777526 (avg.   8.9349777526) [mg/g]
	                      12.4836449430 (avg.  12.4836449430) [cm^3 STP/g],   22.4249007929 (avg.  22.4249007929) [cm^3 STP/cm^3]
----------------------------------------------------------------------------------------------------------------------------------------------------
Degrees of freedom: 78 0 78 0
Number of Framework-atoms:   2304
Number of Adsorbates:          26 (26 integer, 0 fractional, 0 reaction)
Number of Cations:              0 (0 integer, 0 fractional, 0 reaction)

Current total potential energy:            -53026.0383724642 [K]  (avg.      -53026.0383724642)
	Current Host-Host energy:                     0.0000000000 [K]  (avg.           0.0000000000)
	Current Host-Adsorbate energy:           -52234.5336008930 [K]  (avg.      -52234.5336008930)
	Current Host-Cation energy:                   0.0000000000 [K]  (avg.           0.0000000000)
	Current Adsorbate-Adsorbate energy:        -791.5047715712 [K]  (avg.        -791.5047715712)
	Current Cation-Cation energy:                 0.0000000000 [K]  (avg.           0.0000000000)
	Current Adsorbate-Cation energy:              0.0000000000 [K]  (avg.           0.0000000000)



Current cycle: 1000 out of 25000
========================================================================================================

Net charge: 0 (F: 0, A: 0, C: 0)
Current Box:  40.04400   0.00000   0.00000 [A]   Average Box:  40.04400   0.00000   0.00000 [A]
               0.00000  39.79800   0.00000 [A]                  0.00000  39.79800   0.00000 [A]
               0.00000   0.00000  26.76600 [A]                  0.00000   0.00000  26.76600 [A]
Box-lengths:   40.04400  39.79800  26.76600 [A] Average:  40.04400  39.79800  26.76600 [A]
Box-angles:   90.00000  90.00000  90.00000 [degrees] Average:  90.00000  90.00000  90.00000 [degrees]
Volume: 42656.20098 [A^3] Average Volume: 42656.20098 [A^3]

Loadings per component:
----------------------------------------------------------------------------------------------------------------------------------------------------
Component 0 (methane), current number of integer/fractional/reaction molecules: 27/0/0 (avg.  23.48352), density:  16.86172 (avg.  14.66565) [kg/m^3]
	absolute adsorption:   3.37500 (avg.   2.93544) [mol/uc],   0.5851153295 (avg.   0.5089098328) [mol/kg],   9.3866892686 (avg.   8.1641656357) [mg/g]
	                      13.1147608045 (avg.  11.4066926492) [cm^3 STP/g],   23.5586009780 (avg.  20.4903257183) [cm^3 STP/cm^3]
	excess adsorption:     3.3375863606 (avg.   2.8980259210) [mol/uc],   0.5786290202 (avg.   0.5024235234) [mol/kg],   9.2826329107 (avg.   8.0601092778) [mg/g]
	                      12.9693768247 (avg.  11.2613086694) [cm^3 STP/g],   23.2974415698 (avg.  20.2291663102) [cm^3 STP/cm^3]
----------------------------------------------------------------------------------------------------------------------------------------------------
Degrees of freedom: 81 0 81 0
Number of Framework-atoms:   2304
Number of Adsorbates:          27 (27 integer, 0 fractional, 0 reaction)
Number of Cations:              0 (0 integer, 0 fractional, 0 reaction)

Current total potential energy:            -54000.0157362326 [K]  (avg.      -46964.3137841483)
	Current Host-Host energy:                     0.0000000000 [K]  (avg.           0.0000000000)
	Current Host-Adsorbate energy:           -53136.5581712289 [K]  (avg.      -46391.1908096205)
	Current Host-Cation energy:                   0.0000000000 [K]  (avg.           0.0000000000)
	Current Adsorbate-Adsorbate energy:        -863.4575650037 [K]  (avg.        -573.1229745279)
	Current Cation-Cation energy:                 0.0000000000 [K]  (avg.           0.0000000000)
	Current Adsorbate-Cation energy:              0.0000000000 [K]  (avg.           0.0000000000)



Current cycle: 2000 out of 25000
========================================================================================================

Net charge: 0 (F: 0, A: 0, C: 0)
Current Box:  40.04400   0.00000   0.00000 [A]   Average Box:  40.04400   0.00000   0.00000 [A]
               0.00000  39.79800   0.00000 [A]                  0.00000  39.79800   0.00000 [A]
               0.00000   0.00000  26.76600 [A]                  0.00000   0.00000  26.76600 [A]
Box-lengths:   40.04400  39.79800  26.76600 [A] Average:  40.04400  39.79800  26.76600 [A]
Box-angles:   90.00000  90.00000  90.00000 [degrees] Average:  90.00000  90.00000  90.00000 [degrees]
Volume: 42656.20098 [A^3] Average Volume: 42656.20098 [A^3]

Loadings per component:
----------------------------------------------------------------------------------------------------------------------------------------------------
Component 0 (methane), current number of integer/fractional/reaction molecules: 15/0/0 (avg.  22.89155), density:   9.36762 (avg.  14.29596) [kg/m^3]
	absolute adsorption:   1.87500 (avg.   2.86144) [mol/uc],   0.3250640719 (avg.   0.4960814552) [mol/kg],   5.2148273714 (avg.   7.9583669024) [mg/g]
	                       7.2859782247 (avg.  11.1191577065) [cm^3 STP/g],   13.0881116544 (avg.  19.9738145075) [cm^3 STP/cm^3]
	excess adsorption:     1.8375863606 (avg.   2.8240306384) [mol/uc],   0.3185777626 (avg.   0.4895951459) [mol/kg],   5.1107710136 (avg.   7.8543105445) [mg/g]
	                       7.1405942449 (avg.  10.9737737267) [cm^3 STP/g],   12.8269522463 (avg.  19.7126550994) [cm^3 STP/cm^3]
----------------------------------------------------------------------------------------------------------------------------------------------------
Degrees of freedom: 45 0 45 0
Number of Framework-atoms:   2304
Number of Adsorbates:          15 (15 integer, 0 fractional, 0 reaction)
Number of Cations:              0 (0 integer, 0 fractional, 0 reaction)

Current total potential energy:            -31010.2511017815 [K]  (avg.      -45778.1363954503)
	Current Host-Host energy:                     0.0000000000 [K]  (avg.           0.0000000000)
	Current Host-Adsorbate energy:           -30809.8855475246 [K]  (avg.      -45241.0251181236)
	Current Host-Cation energy:                   0.0000000000 [K]  (avg.           0.0000000000)
	Current Adsorbate-Adsorbate energy:        -200.3655542570 [K]  (avg.        -537.1112773268)
	Current Cation-Cation energy:                 0.0000000000 [K]  (avg.           0.0000000000)
	Current Adsorbate-Cation energy:              0.0000000000 [K]  (avg.           0.0000000000)



Current cycle: 3000 out of 25000
========================================================================================================

Net charge: 0 (F: 0, A: 0, C: 0)
Current Box:  40.04400   0.00000   0.00000 [A]   Average Box:  40.04400   0.00000   0.00000 [A]
               0.00000  39.79800   0.00000 [A]                  0.00000  39.79800   0.00000 [A]
               0.00000   0.00000  26.76600 [A]                  0.00000   0.00000  26.76600 [A]
Box-lengths:   40.04400  39.79800  26.76600 [A] Average:  40.04400  39.79800  26.76600 [A]
Box-angles:   90.00000  90.00000  90.00000 [degrees] Average:  90.00000  90.00000  90.00000 [degrees]
Volume: 42656.20098 [A^3] Average Volume: 42656.20098 [A^3]

Loadings per component:
----------------------------------------------------------------------------------------------------------------------------------------------------
Component 0 (methane), current number of integer/fractional/reaction molecules: 28/0/0 (avg.  22.96168), density:  17.48623 (avg.  14.33976) [kg/m^3]
	absolute adsorption:   3.50000 (avg.   2.87021) [mol/uc],   0.6067862676 (avg.   0.4976011345) [mol/kg],   9.7343444266 (avg.   7.9827462959) [mg/g]
	                      13.6004926861 (avg.  11.1532197603) [cm^3 STP/g],   24.4311417549 (avg.  20.0350016191) [cm^3 STP/cm^3]
	excess adsorption:     3.4625863606 (avg.   2.8327962906) [mol/uc],   0.6002999583 (avg.   0.4911148252) [mol/kg],   9.6302880688 (avg.   7.8786899380) [mg/g]
	                      13.4551087063 (avg.  11.0078357804) [cm^3 STP/g],   24.1699823468 (avg.  19.7738422109) [cm^3 STP/cm^3]
----------------------------------------------------------------------------------------------------------------------------------------------------
Degrees of freedom: 84 0 84 0
Number of Framework-atoms:   2304
Number of Adsorbates:          28 (28 integer, 0 fractional, 0 reaction)
Number of Cations:              0 (0 integer, 0 fractional, 0 reaction)

Current total potential energy:            -55240.8877738963 [K]  (avg.      -45900.6913074774)
	Current Host-Host energy:                     0.0000000000 [K]  (avg.           0.0000000000)
	Current Host-Adsorbate energy:           -53941.9978048603 [K]  (avg.      -45355.2306854545)
	Current Host-Cation energy:                   0.0000000000 [K]  (avg.           0.0000000000)
	Current Adsorbate-Adsorbate energy:       -1298.8899690364 [K]  (avg.        -545.4606220231)
	Current Cation-Cation energy:                 0.0000000000 [K]  (avg.           0.0000000000)
	Current Adsorbate-Cation energy:              0.0000000000 [K]  (avg.           0.0000000000)



Current cycle: 4000 out of 25000
========================================================================================================

Net charge: 0 (F: 0, A: 0, C: 0)
Current Box:  40.04400   0.00000   0.00000 [A]   Average Box:  40.04400   0.00000   0.00000 [A]
               0.00000  39.79800   0.00000 [A]                  0.00000  39.79800   0.00000 [A]
               0.00000   0.00000  26.76600 [A]                  0.00000   0.00000  26.76600 [A]
Box-lengths:   40.04400  39.79800  26.76600 [A] Average:  40.04400  39.79800  26.76600 [A]
Box-angles:   90.00000  90.00000  90.00000 [degrees] Average:  90.00000  90.00000  90.00000 [degrees]
Volume: 42656.20098 [A^3] Average Volume: 42656.20098 [A^3]

Loadings per component:
----------------------------------------------------------------------------------------------------------------------------------------------------
Component 0 (methane), current number of integer/fractional/reaction molecules: 28/0/0 (avg.  23.18595), density:  17.48623 (avg.  14.47982) [kg/m^3]
	absolute adsorption:   3.50000 (avg.   2.89824) [mol/uc],   0.6067862676 (avg.   0.5024613640) [mol/kg],   9.7343444266 (avg.   8.0607163337) [mg/g]
	                      13.6004926861 (avg.  11.2621568270) [cm^3 STP/g],   24.4311417549 (avg.  20.2306898916) [cm^3 STP/cm^3]
	excess adsorption:     3.4625863606 (avg.   2.8608305495) [mol/uc],   0.6002999583 (avg.   0.4959750547) [mol/kg],   9.6302880688 (avg.   7.9566599758) [mg/g]
	                      13.4551087063 (avg.  11.1167728472) [cm^3 STP/g],   24.1699823468 (avg.  19.9695304835) [cm^3 STP/cm^3]
----------------------------------------------------------------------------------------------------------------------------------------------------
Degrees of freedom: 84 0 84 0
Number of Framework-atoms:   2304
Number of Adsorbates:          28 (28 integer, 0 fractional, 0 reaction)
Number of Cations:              0 (0 integer, 0 fractional, 0 reaction)

Current total potential energy:            -58148.8085277013 [K]  (avg.      -46434.1293453468)
	Current Host-Host energy:                     0.0000000000 [K]  (avg.           0.0000000000)
	Current Host-Adsorbate energy:           -57326.4958198075 [K]  (avg.      -45887.4269877516)
	Current Host-Cation energy:                   0.0000000000 [K]  (avg.           0.0000000000)
	Current Adsorbate-Adsorbate energy:        -822.3127078938 [K]  (avg.        -546.7023575954)
	Current Cation-Cation energy:                 0.0000000000 [K]  (avg.           0.0000000000)
	Current Adsorbate-Cation energy:              0.0000000000 [K]  (avg.           0.0000000000)



Current cycle: 5000 out of 25000
========================================================================================================

Net charge: 0 (F: 0, A: 0, C: 0)
Current Box:  40.04400   0.00000   0.00000 [A]   Average Box:  40.04400   0.00000   0.00000 [A]
               0.00000  39.79800   0.00000 [A]                  0.00000  39.79800   0.00000 [A]
               0.00000   0.00000  26.76600 [A]                  0.00000   0.00000  26.76600 [A]
Box-lengths:   40.04400  39.79800  26.76600 [A] Average:  40.04400  39.79800  26.76600 [A]
Box-angles:   90.00000  90.00000  90.00000 [degrees] Average:  90.00000  90.00000  90.00000 [degrees]
Volume: 42656.20098 [A^3] Average Volume: 42656.20098 [A^3]

Loadings per component:
----------------------------------------------------------------------------------------------------------------------------------------------------
Component 0 (methane), current number of integer/fractional/reaction molecules: 25/0/0 (avg.  22.98180), density:  15.61271 (avg.  14.35233) [kg/m^3]
	absolute adsorption:   3.12500 (avg.   2.87273) [mol/uc],   0.5417734532 (avg.   0.4980372448) [mol/kg],   8.6913789524 (avg.   7.9897425775) [mg/g]
	                      12.1432970412 (avg.  11.1629947254) [cm^3 STP/g],   21.8135194240 (avg.  20.0525608034) [cm^3 STP/cm^3]
	excess adsorption:     3.0875863606 (avg.   2.8353118155) [mol/uc],   0.5352871439 (avg.   0.4915509354) [mol/kg],   8.5873225945 (avg.   7.8856862197) [mg/g]
	                      11.9979130614 (avg.  11.0176107455) [cm^3 STP/g],   21.5523600159 (avg.  19.7914013953) [cm^3 STP/cm^3]
----------------------------------------------------------------------------------------------------------------------------------------------------
Degrees of freedom: 75 0 75 0
Number of Framework-atoms:   2304
Number of Adsorbates:          25 (25 integer, 0 fractional, 0 reaction)
Number of Cations:              0 (0 integer, 0 fractional, 0 reaction)

Current total potential energy:            -50483.1963468574 [K]  (avg.      -45970.9099115700)
	Current Host-Host energy:                     0.0000000000 [K]  (avg.           0.0000000000)
	Current Host-Adsorbate energy:           -49571.8340315839 [K]  (avg.      -45440.5442323307)
	Current Host-Cation energy:                   0.0000000000 [K]  (avg.           0.0000000000)
	Current Adsorbate-Adsorbate energy:        -911.3623152731 [K]  (avg.        -530.3656792395)
	Current Cation-Cation energy:                 0.0000000000 [K]  (avg.           0.0000000000)
	Current Adsorbate-Cation energy:              0.0000000000 [K]  (avg.           0.0000000000)



Current cycle: 6000 out of 25000
========================================================================================================

Net charge: 0 (F: 0, A: 0, C: 0)
Current Box:  40.04400   0.00000   0.00000 [A]   Average Box:  40.04400   0.00000   0.00000 [A]
               0.00000  39.79800   0.00000 [A]                  0.00000  39.79800   0.00000 [A]
               0.00000   0.00000  26.76600 [A]                  0.00000   0.00000  26.76600 [A]
Box-lengths:   40.04400  39.79800  26.76600 [A] Average:  40.04400  39.79800  26.76600 [A]
Box-angles:   90.00000  90.00000  90.00000 [degrees] Average:  90.00000  90.00000  90.00000 [degrees]
Volume: 42656.20098 [A^3] Average Volume: 42656.20098 [A^3]

Loadings per component:
----------------------------------------------------------------------------------------------------------------------------------------------------
Component 0 (methane), current number of integer/fractional/reaction molecules: 14/0/0 (avg.  23.05966), density:   8.74312 (avg.  14.40095) [kg/m^3]
	absolute adsorption:   1.75000 (avg.   2.88246) [mol/uc],   0.3033931338 (avg.   0.4997243941) [mol/kg],   4.8671722133 (avg.   8.0168086039) [mg/g]
	                       6.8002463431 (avg.  11.2008104506) [cm^3 STP/g],   12.2155708775 (avg.  20.1204907943) [cm^3 STP/cm^3]
	excess adsorption:     1.7125863606 (avg.   2.8450434511) [mol/uc],   0.2969068245 (avg.   0.4932380848) [mol/kg],   4.7631158555 (avg.   7.9127522461) [mg/g]
	                       6.6548623632 (avg.  11.0554264708) [cm^3 STP/g],   11.9544114693 (avg.  19.8593313862) [cm^3 STP/cm^3]
----------------------------------------------------------------------------------------------------------------------------------------------------
Degrees of freedom: 42 0 42 0
Number of Framework-atoms:   2304
Number of Adsorbates:          14 (14 integer, 0 fractional, 0 reaction)
Number of Cations:              0 (0 integer, 0 fractional, 0 reaction)

Current total potential energy:            -29112.0606107778 [K]  (avg.      -46136.9301352473)
	Current Host-Host energy:                     0.0000000000 [K]  (avg.           0.0000000000)
	Current Host-Adsorbate energy:           -29000.5660974405 [K]  (avg.      -45599.6381703926)
	Current Host-Cation energy:                   0.0000000000 [K]  (avg.           0.0000000000)
	Current Adsorbate-Adsorbate energy:        -111.4945133368 [K]  (avg.        -537.2919648548)
	Current Cation-Cation energy:                 0.0000000000 [K]  (avg.           0.0000000000)
	Current Adsorbate-Cation energy:              0.0000000000 [K]  (avg.           0.0000000000)



Current cycle: 7000 out of 25000
========================================================================================================

Net charge: 0 (F: 0, A: 0, C: 0)
Current Box:  40.04400   0.00000   0.00000 [A]   Average Box:  40.04400   0.00000   0.00000 [A]
               0.00000  39.79800   0.00000 [A]                  0.00000  39.79800   0.00000 [A]
               0.00000   0.00000  26.76600 [A]                  0.00000   0.00000  26.76600 [A]
Box-lengths:   40.04400  39.79800  26.76600 [A] Average:  40.04400  39.79800  26.76600 [A]
Box-angles:   90.00000  90.00000  90.00000 [degrees] Average:  90.00000  90.00000  90.00000 [degrees]
Volume: 42656.20098 [A^3] Average Volume: 42656.20098 [A^3]

Loadings per component:
----------------------------------------------------------------------------------------------------------------------------------------------------
[...]
	Block[ 3]            0.00000 [K]
	Block[ 4]            0.00000 [K]
	------------------------------------------------------------------------------
	Average              0.00000 [K] +/-            0.00000 [K]

Average Cation Bend angle inversion energy:
===========================================
	Block[ 0]            0.00000 [K]
	Block[ 1]            0.00000 [K]
	Block[ 2]            0.00000 [K]
	Block[ 3]            0.00000 [K]
	Block[ 4]            0.00000 [K]
	------------------------------------------------------------------------------
	Average              0.00000 [K] +/-            0.00000 [K]

Average Cation Torsion energy:
==============================
	Block[ 0]            0.00000 [K]
	Block[ 1]            0.00000 [K]
	Block[ 2]            0.00000 [K]
	Block[ 3]            0.00000 [K]
	Block[ 4]            0.00000 [K]
	------------------------------------------------------------------------------
	Average              0.00000 [K] +/-            0.00000 [K]

Average Cation Improper Torsion energy:
=======================================
	Block[ 0]            0.00000 [K]
	Block[ 1]            0.00000 [K]
	Block[ 2]            0.00000 [K]
	Block[ 3]            0.00000 [K]
	Block[ 4]            0.00000 [K]
	------------------------------------------------------------------------------
	Average              0.00000 [K] +/-            0.00000 [K]

Average Cation Bond-Bond cross term energy:
=================================================
	Block[ 0]            0.00000 [K]
	Block[ 1]            0.00000 [K]
	Block[ 2]            0.00000 [K]
	Block[ 3]            0.00000 [K]
	Block[ 4]            0.00000 [K]
	------------------------------------------------------------------------------
	Average              0.00000 [K] +/-            0.00000 [K]

Average Cation Bend-Bend cross term energy:
===========================================
	Block[ 0]            0.00000 [K]
	Block[ 1]            0.00000 [K]
	Block[ 2]            0.00000 [K]
	Block[ 3]            0.00000 [K]
	Block[ 4]            0.00000 [K]
	------------------------------------------------------------------------------
	Average              0.00000 [K] +/-            0.00000 [K]

Average Cation Bond-Bend cross term energy:
==============================================
	Block[ 0]            0.00000 [K]
	Block[ 1]            0.00000 [K]
	Block[ 2]            0.00000 [K]
	Block[ 3]            0.00000 [K]
	Block[ 4]            0.00000 [K]
	------------------------------------------------------------------------------
	Average              0.00000 [K] +/-            0.00000 [K]

Average Cation Bond-Torsion cross term energy:
==============================================
	Block[ 0]            0.00000 [K]
	Block[ 1]            0.00000 [K]
	Block[ 2]            0.00000 [K]
	Block[ 3]            0.00000 [K]
	Block[ 4]            0.00000 [K]
	------------------------------------------------------------------------------
	Average              0.00000 [K] +/-            0.00000 [K]

Average Cation Bend-Torsion cross term energy:
==============================================
	Block[ 0]            0.00000 [K]
	Block[ 1]            0.00000 [K]
	Block[ 2]            0.00000 [K]
	Block[ 3]            0.00000 [K]
	Block[ 4]            0.00000 [K]
	------------------------------------------------------------------------------
	Average              0.00000 [K] +/-            0.00000 [K]

Average Cation Intra Van der Waals energy:
==========================================
	Block[ 0]            0.00000 [K]
	Block[ 1]            0.00000 [K]
	Block[ 2]            0.00000 [K]
	Block[ 3]            0.00000 [K]
	Block[ 4]            0.00000 [K]
	------------------------------------------------------------------------------
	Average              0.00000 [K] +/-            0.00000 [K]

Average Cation Intra charge-charge Coulomb energy:
====================================
	Block[ 0]            0.00000 [K]
	Block[ 1]            0.00000 [K]
	Block[ 2]            0.00000 [K]
	Block[ 3]            0.00000 [K]
	Block[ 4]            0.00000 [K]
	------------------------------------------------------------------------------
	Average              0.00000 [K] +/-            0.00000 [K]

Average Cation Intra charge-bonddipole Coulomb energy:
====================================
	Block[ 0]            0.00000 [K]
	Block[ 1]            0.00000 [K]
	Block[ 2]            0.00000 [K]
	Block[ 3]            0.00000 [K]
	Block[ 4]            0.00000 [K]
	------------------------------------------------------------------------------
	Average              0.00000 [K] +/-            0.00000 [K]

Average Cation Intra bonddipole-bonddipole Coulomb energy:
====================================
	Block[ 0]            0.00000 [K]
	Block[ 1]            0.00000 [K]
	Block[ 2]            0.00000 [K]
	Block[ 3]            0.00000 [K]
	Block[ 4]            0.00000 [K]
	------------------------------------------------------------------------------
	Average              0.00000 [K] +/-            0.00000 [K]

Average Host-Host energy:
=========================
	Block[ 0] 0.00000            Van der Waals: 0.00000            Coulomb: 0.00000            [K]
	Block[ 1] 0.00000            Van der Waals: 0.00000            Coulomb: 0.00000            [K]
	Block[ 2] 0.00000            Van der Waals: 0.00000            Coulomb: 0.00000            [K]
	Block[ 3] 0.00000            Van der Waals: 0.00000            Coulomb: 0.00000            [K]
	Block[ 4] 0.00000            Van der Waals: 0.00000            Coulomb: 0.00000            [K]
	------------------------------------------------------------------------------
	Average   0.00000            Van der Waals: 0.000000           Coulomb: 0.00000            [K]
	      +/- 0.00000                       +/- 0.000000                +/- 0.00000            [K]

Average Adsorbate-Adsorbate energy:
===================================
	Block[ 0] -530.28948         Van der Waals: -530.28948         Coulomb: 0.00000            [K]
	Block[ 1] -551.52160         Van der Waals: -551.52160         Coulomb: 0.00000            [K]
	Block[ 2] -572.15952         Van der Waals: -572.15952         Coulomb: 0.00000            [K]
	Block[ 3] -533.91018         Van der Waals: -533.91018         Coulomb: 0.00000            [K]
	Block[ 4] -535.30311         Van der Waals: -535.30311         Coulomb: 0.00000            [K]
	------------------------------------------------------------------------------
	Average   -544.63678         Van der Waals: -544.636779        Coulomb: 0.00000            [K]
	      +/- 21.61829                      +/- 21.618287               +/- 0.00000            [K]

Average Cation-Cation energy:
=============================
	Block[ 0] 0.00000            Van der Waals: 0.00000            Coulomb: 0.00000            [K]
	Block[ 1] 0.00000            Van der Waals: 0.00000            Coulomb: 0.00000            [K]
	Block[ 2] 0.00000            Van der Waals: 0.00000            Coulomb: 0.00000            [K]
	Block[ 3] 0.00000            Van der Waals: 0.00000            Coulomb: 0.00000            [K]
	Block[ 4] 0.00000            Van der Waals: 0.00000            Coulomb: 0.00000            [K]
	------------------------------------------------------------------------------
	Average   0.00000            Van der Waals: 0.000000           Coulomb: 0.00000            [K]
	      +/- 0.00000                       +/- 0.000000                +/- 0.00000            [K]

Average Host-Adsorbate energy:
==============================
	Block[ 0] -45439.71797       Van der Waals: -45439.71797       Coulomb: 0.00000            [K]
	Block[ 1] -45726.54434       Van der Waals: -45726.54434       Coulomb: 0.00000            [K]
	Block[ 2] -46500.39960       Van der Waals: -46500.39960       Coulomb: 0.00000            [K]
	Block[ 3] -45606.89558       Van der Waals: -45606.89558       Coulomb: 0.00000            [K]
	Block[ 4] -45957.12203       Van der Waals: -45957.12203       Coulomb: 0.00000            [K]
	------------------------------------------------------------------------------
	Average   -45846.13590       Van der Waals: -45846.135905      Coulomb: 0.00000            [K]
	      +/- 510.77363                     +/- 510.773634              +/- 0.00000            [K]

Average Host-Cation energy:
===========================
	Block[ 0] 0.00000            Van der Waals: 0.00000            Coulomb: 0.00000            [K]
	Block[ 1] 0.00000            Van der Waals: 0.00000            Coulomb: 0.00000            [K]
	Block[ 2] 0.00000            Van der Waals: 0.00000            Coulomb: 0.00000            [K]
	Block[ 3] 0.00000            Van der Waals: 0.00000            Coulomb: 0.00000            [K]
	Block[ 4] 0.00000            Van der Waals: 0.00000            Coulomb: 0.00000            [K]
	------------------------------------------------------------------------------
	Average   0.00000            Van der Waals: 0.000000           Coulomb: 0.00000            [K]
	      +/- 0.00000                       +/- 0.000000                +/- 0.00000            [K]

Average Adsorbate-Cation energy:
================================
	Block[ 0] 0.00000            Van der Waals: 0.00000            Coulomb: 0.00000            [K]
	Block[ 1] 0.00000            Van der Waals: 0.00000            Coulomb: 0.00000            [K]
	Block[ 2] 0.00000            Van der Waals: 0.00000            Coulomb: 0.00000            [K]
	Block[ 3] 0.00000            Van der Waals: 0.00000            Coulomb: 0.00000            [K]
	Block[ 4] 0.00000            Van der Waals: 0.00000            Coulomb: 0.00000            [K]
	------------------------------------------------------------------------------
	Average   0.00000            Van der Waals: 0.000000           Coulomb: 0.00000            [K]
	      +/- 0.00000                       +/- 0.000000                +/- 0.00000            [K]

Host polarization energy:
=======================
	Block[ 0]            0.00000 [K]
	Block[ 1]            0.00000 [K]
	Block[ 2]            0.00000 [K]
	Block[ 3]            0.00000 [K]
	Block[ 4]            0.00000 [K]
	------------------------------------------------------------------------------
	Average              0.00000 [K] +/-            0.00000 [K]

Adsorbate polarization energy:
=======================
	Block[ 0]            0.00000 [K]
	Block[ 1]            0.00000 [K]
	Block[ 2]            0.00000 [K]
	Block[ 3]            0.00000 [K]
	Block[ 4]            0.00000 [K]
	------------------------------------------------------------------------------
	Average              0.00000 [K] +/-            0.00000 [K]

Cation polarization energy:
=======================
	Block[ 0]            0.00000 [K]
	Block[ 1]            0.00000 [K]
	Block[ 2]            0.00000 [K]
	Block[ 3]            0.00000 [K]
	Block[ 4]            0.00000 [K]
	------------------------------------------------------------------------------
	Average              0.00000 [K] +/-            0.00000 [K]

Host back-polarization energy:
=======================
	Block[ 0]            0.00000 [K]
	Block[ 1]            0.00000 [K]
	Block[ 2]            0.00000 [K]
	Block[ 3]            0.00000 [K]
	Block[ 4]            0.00000 [K]
	------------------------------------------------------------------------------
	Average              0.00000 [K] +/-            0.00000 [K]

Adsorbate back-polarization energy:
=======================
	Block[ 0]            0.00000 [K]
	Block[ 1]            0.00000 [K]
	Block[ 2]            0.00000 [K]
	Block[ 3]            0.00000 [K]
	Block[ 4]            0.00000 [K]
	------------------------------------------------------------------------------
	Average              0.00000 [K] +/-            0.00000 [K]

Cation back-polarization energy:
=======================
	Block[ 0]            0.00000 [K]
	Block[ 1]            0.00000 [K]
	Block[ 2]            0.00000 [K]
	Block[ 3]            0.00000 [K]
	Block[ 4]            0.00000 [K]
	------------------------------------------------------------------------------
	Average              0.00000 [K] +/-            0.00000 [K]

Tail-correction energy:
=======================
	Block[ 0]            0.00000 [K]
	Block[ 1]            0.00000 [K]
	Block[ 2]            0.00000 [K]
	Block[ 3]            0.00000 [K]
	Block[ 4]            0.00000 [K]
	------------------------------------------------------------------------------
	Average              0.00000 [K] +/-            0.00000 [K]

Distance-constraints energy:
=======================
	Block[ 0]            0.00000 [K]
	Block[ 1]            0.00000 [K]
	Block[ 2]            0.00000 [K]
	Block[ 3]            0.00000 [K]
	Block[ 4]            0.00000 [K]
	------------------------------------------------------------------------------
	Average              0.00000 [K] +/-            0.00000 [K]

Angle-constraints energy:
=======================
	Block[ 0]            0.00000 [K]
	Block[ 1]            0.00000 [K]
	Block[ 2]            0.00000 [K]
	Block[ 3]            0.00000 [K]
	Block[ 4]            0.00000 [K]
	------------------------------------------------------------------------------
	Average              0.00000 [K] +/-            0.00000 [K]

Dihedral-constraints energy:
=======================
	Block[ 0]            0.00000 [K]
	Block[ 1]            0.00000 [K]
	Block[ 2]            0.00000 [K]
	Block[ 3]            0.00000 [K]
	Block[ 4]            0.00000 [K]
	------------------------------------------------------------------------------
	Average              0.00000 [K] +/-            0.00000 [K]

Inversion-bend constraints energy:
=======================
	Block[ 0]            0.00000 [K]
	Block[ 1]            0.00000 [K]
	Block[ 2]            0.00000 [K]
	Block[ 3]            0.00000 [K]
	Block[ 4]            0.00000 [K]
	------------------------------------------------------------------------------
	Average              0.00000 [K] +/-            0.00000 [K]

Out-of-plane-distance constraints energy:
=======================
	Block[ 0]            0.00000 [K]
	Block[ 1]            0.00000 [K]
	Block[ 2]            0.00000 [K]
	Block[ 3]            0.00000 [K]
	Block[ 4]            0.00000 [K]
	------------------------------------------------------------------------------
	Average              0.00000 [K] +/-            0.00000 [K]

Exclusion-constraints energy:
=======================
	Block[ 0]            0.00000 [K]
	Block[ 1]            0.00000 [K]
	Block[ 2]            0.00000 [K]
	Block[ 3]            0.00000 [K]
	Block[ 4]            0.00000 [K]
	------------------------------------------------------------------------------
	Average              0.00000 [K] +/-            0.00000 [K]

Total energy:
=============
	Block[ 0]       -45970.00745 [K]
	Block[ 1]       -46278.06594 [K]
	Block[ 2]       -47072.55912 [K]
	Block[ 3]       -46140.80576 [K]
	Block[ 4]       -46492.42514 [K]
	------------------------------------------------------------------------------
	Average         -46390.77268 [K] +/-          529.40715 [K]

Number of molecules:
====================

Component 0 [methane]
-------------------------------------------------------------
	Block[ 0] 22.98140           [-]
	Block[ 1] 23.14100           [-]
	Block[ 2] 23.52020           [-]
	Block[ 3] 23.04180           [-]
	Block[ 4] 23.21740           [-]
	------------------------------------------------------------------------------
	Average loading absolute                             23.1803600000 +/-       0.2612954530 [-]
	Average loading absolute [molecules/unit cell]        2.8975450000 +/-       0.0326619316 [-]
	Average loading absolute [mol/kg framework]                  0.5023401474 +/-       0.0056625176 [-]
	Average loading absolute [milligram/gram framework]          8.0587717205 +/-       0.0908407120 [-]
	Average loading absolute [cm^3 (STP)/gr framework]          11.2594398801 +/-       0.1269195320 [-]
	Average loading absolute [cm^3 (STP)/cm^3 framework]        20.2258093246 +/-       0.2279909376 [-]

	Block[ 0] 22.68209           [-]
	Block[ 1] 22.84169           [-]
	Block[ 2] 23.22089           [-]
	Block[ 3] 22.74249           [-]
	Block[ 4] 22.91809           [-]
	------------------------------------------------------------------------------
	Average loading excess                             22.8810508846 +/-       0.2612954530 [-]
	Average loading excess [molecules/unit cell]        2.8601313606 +/-       0.0326619316 [-]
	Average loading excess [mol/kg framework]                    0.4958538380 +/-       0.0056625176 [-]
	Average loading excess [milligram/gram framework]            7.9547153626 +/-       0.0908407120 [-]
	Average loading excess [cm^3 (STP)/gr framework]            11.1140559002 +/-       0.1269195320 [-]
	Average loading excess [cm^3 (STP)/cm^3 framework]          19.9646499165 +/-       0.2279909376 [-]


Average Widom Rosenbluth factor:
================================
	Block[ 0] 0 [-]
	Block[ 1] 0 [-]
	Block[ 2] 0 [-]
	Block[ 3] 0 [-]
	Block[ 4] 0 [-]
	------------------------------------------------------------------------------
	[methane] Average Widom Rosenbluth-weight:   0 +/- 0.000000 [-]

Average Widom chemical potential:
=================================
	Block[ 0] 0 [-]
	Block[ 1] 0 [-]
	Block[ 2] 0 [-]
	Block[ 3] 0 [-]
	Block[ 4] 0 [-]
	------------------------------------------------------------------------------
	[methane] Average chemical potential:   0 +/- 0.000000 [K]

Average Widom Ideal-gas contribution:
=====================================
	Block[ 0] 0 [-]
	Block[ 1] 0 [-]
	Block[ 2] 0 [-]
	Block[ 3] 0 [-]
	Block[ 4] 0 [-]
	------------------------------------------------------------------------------
	[methane] Average Widom Ideal-gas chemical potential:   0 +/- 0.000000 [-]

Average Widom excess contribution:
==================================
	Block[ 0] 0 [-]
	Block[ 1] 0 [-]
	Block[ 2] 0 [-]
	Block[ 3] 0 [-]
	Block[ 4] 0 [-]
	------------------------------------------------------------------------------
	[methane] Average Widom excess chemical potential:   0 +/- 0.000000 [-]

Average Gibbs Widom Rosenbluth factor:
======================================
	Block[ 0] 0 [-]
	Block[ 1] 0 [-]
	Block[ 2] 0 [-]
	Block[ 3] 0 [-]
	Block[ 4] 0 [-]
	------------------------------------------------------------------------------
	[methane] Average Gibbs Widom Rosenbluth-weight:   0 +/- 0.000000 [-]

Average Gibbs Widom chemical potential:
=======================================
	Block[ 0] 0 [-]
	Block[ 1] 0 [-]
	Block[ 2] 0 [-]
	Block[ 3] 0 [-]
	Block[ 4] 0 [-]
	------------------------------------------------------------------------------
	[methane] Average Gibbs chemical potential:   0 +/- 0.000000 [K]

Average Gibbs Widom Ideal-gas contribution:
===========================================
	Block[ 0] 0 [-]
	Block[ 1] 0 [-]
	Block[ 2] 0 [-]
	Block[ 3] 0 [-]
	Block[ 4] 0 [-]
	------------------------------------------------------------------------------
	[methane] Average Gibbs Ideal-gas chemical potential:   0 +/- 0.000000 [-]

Average Gibbs Widom excess contribution:
===========================================
	Block[ 0] 0 [-]
	Block[ 1] 0 [-]
	Block[ 2] 0 [-]
	Block[ 3] 0 [-]
	Block[ 4] 0 [-]
	------------------------------------------------------------------------------
	[methane] Average Gibbs excess chemical potential:   0 +/- 0.000000 [-]

Average Henry coefficient:
==========================
	Block[ 0] 0 [mol/kg/Pa]
	Block[ 1] 0 [mol/kg/Pa]
	Block[ 2] 0 [mol/kg/Pa]
	Block[ 3] 0 [mol/kg/Pa]
	Block[ 4] 0 [mol/kg/Pa]
	------------------------------------------------------------------------------
	[methane] Average Henry coefficient:  0 +/- 0 [mol/kg/Pa]

Average adsorption energy <U_gh>_1-<U_h>_0 obtained from Widom-insertion:
(Note: the total heat of adsorption is dH=<U_gh>_1-<U_h>_0 - <U_g> - RT)
=========================================================================

Simulation finished,  0 warnings


Tue May 18 13:03:50 2021
Simulation finished on Tuesday, May 18.
The end time was 01:03 PM.

