Compiler and run-time data
===========================================================================
RASPA 2.0.45
Compiled as a 64-bits application
Compiler: gcc Apple LLVM 12.0.5 (clang-1205.0.22.9)
Compile Date = May 18 2021, Compile Time = 12:54:12

Tue May 18 14:31:40 2021
Simulation started on Tuesday, May 18.
The start time was 02:31 PM.

Cpu data:    x86_64
Cpu Model:   MacPro7,1
Host name:   MacPro.local
OS release:  20.4.0
OS type:     Darwin
OS version:  20E232


Simulation
===========================================================================
Dimensions: 3
Random number seed: 1621341099
RASPA directory set to: /Users/dubbelda/RASPA/simulations/
String appended to output-files: 
Number of cycles: 50000
Number of initializing cycles: 10000
Number of equilibration cycles: 0
Print every: 1000
Triclinic boundary condition applied
Timestep: 0.000500
	Degrees of freedom:                        0
	Translational Degrees of freedom:          0
	Rotational Degrees of freedom:             0
	Degrees of freedom Framework:              0


Mutual consistent basic set of units:
======================================
Unit of temperature: Kelvin
Unit of length:      1e-10 [m]
Unit of time:        1e-12 [s]
Unit of mass:        1.66054e-27 [kg]
Unit of charge:      1.60218e-19 [C/particle]

Derived units and their conversion factors:
===========================================
Unit of energy:              1.66054e-23 [J]
Unit of force:               1.66054e-13 [N]
Unit of pressure:            1.66054e+07 [Pa]
Unit of velocity:            100 [m/s]
Unit of acceleration:        1e-08 [m^2/s]
Unit of diffusion:           1e-08 [m^2/s]
Unit of dipole moment:       1.60218e-29 [C.m]
Unit of electric potential:  0.000103643 [V]
Unit of electric field:      1.03643e+06 [V]
Unit of polarizability:      1.54587e-35 [-]
Unit of Coulomb potential:   167101.0800066561  [K]
Unit of dielectric constant: 0.0000154587       [s^2 C^2/(kg m^3)]
Unit of wave vectors:        5.3088374589       [cm^1]
Boltzmann constant:          0.8314464919       [-]

Internal conversion factors:
===========================================
Energy to Kelvin:                                    1.2027242847
FH correction factor                                 2.0211930949
Heat capacity conversion factor:                    10.0000088723
From Debye to internal units:                        4.8032067991
Isothermal compressibility conversion factor:        0.0000000602

Energy conversion factors:
===========================================
From mdyne/A to kcal/mol/A^2:           143.933
From mdyne/A to kj/mol/A^2:             602.214
From mdyne/A to K/A^2:                  72429.7
From mdyne A/rad^2 to kcal/mol/deg^2:   0.0438444


Properties computed
===========================================================================
Movies: no
Radial Distribution Function: no
Number of molecules GCMC histogram: no
Histogram of the molecule positions: no
Free energy profiles: no
Pore Size Distribution Function: no
End-to-end distance: no
Histogram of the energy of the system: no
Compute thermodynamic factors: no
Framework spacing histograms: no
Residence times histograms: no
Distance histograms: no
Bend Angle histograms: no
Dihedral angle histograms: no
Angle between planes histograms: no
Molecule properties: no
Infra-red spectra: no
Mean-squared displacement using modified order-N algorithm: no
Velocity-autocorrelation function modified order-N algorithm: no
Rotational velocity-autocorrelation function modified order-N algorithm: no
Molecular orientation-autocorrelation function modified order-N algorithm: no
Bond orientation-autocorrelation function modified order-N algorithm: no
Mean-squared displacement (conventional algorithm): no
Velocity-autocorrelation function (conventional algorithm): no
3D density grid for adsorbates: no
Compute cation an/or adsorption sites: no
dcTST snapshots: no
Compute pressure and stress: no


VTK
===========================================================================
VTK fractional-range position framework atoms: [-0.001000,1.001000] [-0.001000,1.001000] [-0.001000,1.001000]
VTK fractional-range position framework bonds: [-0.151000,1.151000] [-0.151000,1.151000] [-0.151000,1.151000]
VTK fractional-range com-position adsorbate molecules: [-0.101000,1.101000] [-0.101000,1.101000] [-0.101000,1.101000]
VTK fractional-range com-position cation molecules: [-0.101000,1.101000] [-0.101000,1.101000] [-0.101000,1.101000]
	3D free energy grid made for the full simulation-cell


Thermo/Baro-stat NHC parameters
===========================================================================
External temperature: 300 [K]
Beta: 0.00400908 [energy unit]
External Pressure: 1e+06 [Pa]


Thermostat chain-length: 3
Timescale parameter for thermostat: 0.150000 [ps]
Barostat chain-length:   3
Timescale parameter for barostat:   0.150000 [ps]

Number of Yoshida-Suzuki decomposition steps: 5
Number of respa steps: 5


Method and settings for electrostatics
===============================================================================
Dielectric constant of the medium : 1.000000
Charge from charge-equilibration: no
Ewald summation is used (exact solution of a periodic system)
Relative precision                : 1e-06
Alpha convergence parameter       : 0.265058
kvec (x,y,z)                      : 7 7 7


CFC-RXMC parameters
===========================================================================
Number of reactions: 0


Rattle parameters
===========================================================================
Distance constraint type: r^2-r^2_0
Bend angle constraint type: theta-theta_0
Dihedral angle constraint type: phi-phi_0
Inversion-bend angle constraint type: chi-chi_0
Out-of-plane distance constraint type: r-r_0


Spectra parameters
===========================================================================
Compute normal modes: no


Minimization parameters
===========================================================================
Generalized coordinates are: Cartesian center-of-mass, elements of the orientational matrix p1,p2,p3 and strain
Potential derivatives are evaluated: analytically
Translation of the system is removed from the generalized Hessian: no
Rotation of the system is removed from the generalized Hessian: no
Maximum step-length: 0.3
Convergence factor: 1
Maximum number of minimization steps: 10000
Use gradients in the line-minimizations: yes
RMS gradient tolerance: 1e-06
Maximum gradient tolerance: 1e-06

Distance constraints: 0
Angle constraints: 0
Dihedral constraints: 0

Improper dihedral constraints: 0

Inversion-bend constraints: 0

Out-of-plane constraints: 0

Harmonic distance constraints: 0
Harmonic angle constraints: 0
Harmonic dihedral constraints: 0

Dihedral mid-point measurements: 0

All framework atoms are fixed

Fixed adsorbate atoms:  
Fixed adsorbate groups (center-of-mass):  
Fixed adsorbate groups (orientation):  

Fixed cation atoms:  
Fixed cation groups (center-of-mass):  
Fixed cation groups (orientation):  


dcTST parameters
===========================================================================
Free energy profiles computed: no
Free energy profiles written every 5000 cycles
Free energy mapping: mapped to a,b,c-coordinates
BarrierPosition:       0.0000000000       0.0000000000       0.0000000000
BarrierNormal:         0.0000000000       0.0000000000       0.0000000000
Start with a molecule on top of the barrier: no
Maximum distance to barrier (e.g. distance to minumum free energy):       0.0000000000 [A]
Maximum trajectory time:      10.0000000000 [ps]
Each configuration is used with 5 different initial velocities


Cbmc parameters
===========================================================================
Biasing method: using only the VDW part
Number of trial positions:                                       10
Number of trial positions (reinsertion):                         10
Number of trial positions (partial reinsertion):                 10
Number of trial positions (identity-change):                     10
Number of trial positions (Gibbs particle transfer):             10
Number of trial positions (insertion/deletion):                  10
Number of trial positions (Widom insertion):                     10
Number of trial positions coupled Torsion-selection:             100
Number of trial positions first bead:                            10
Number of trial positions first bead (reinsertion):              10
Number of trial positions first bead (partial reinsertion):      10
Number of trial positions first bead (identity-change):          10
Number of trial positions first bead (Gibbs particle transfer):  10
Number of trial positions first bead (insertion/deletion):       10
Number of trial positions first bead (Widom insertion):          10
Number of trial moves per open bead:                             150
Target acceptance ratio small-mc scheme:                         0.400000
Energy overlap criteria:                                         1e+07
Minimal Rosenbluth factor:                                       1e-150


Pseudo atoms: 21
===========================================================================
Pseudo Atom[   0] Name UNIT     Oxidation:          Element: H    pdb-name: H    Scat. Types:   1   1 Mass=1.000000000  B-factor:0.000   
                 Charge=1.000000000          Polarization=0.000000000  [A^3] (considered a charged atom and no polarization)  Interactions: yes
                 Anisotropic factor:    0.000 [-] (Absolute), Radius:    1.000 [A], Framework-atom:  no
Pseudo Atom[   1] Name Zn1      Oxidation: +0       Element: Zn   pdb-name: Zn   Scat. Types:  31  30 Mass=65.370000000 B-factor:1.000   
                 Charge=1.275000000          Polarization=0.000000000  [A^3] (considered a charged atom and no polarization)  Interactions: yes
                 Anisotropic factor:    0.000 [-] (Relative), Radius:    1.600 [A], Framework-atom: yes (charge from pseudo-atoms file)
Pseudo Atom[   2] Name O1       Oxidation: +0       Element: O    pdb-name: O    Scat. Types:   9   8 Mass=15.999400000 B-factor:1.000   
                 Charge=-1.500000000         Polarization=0.000000000  [A^3] (considered a charged atom and no polarization)  Interactions: yes
                 Anisotropic factor:    0.000 [-] (Relative), Radius:    0.680 [A], Framework-atom: yes (charge from pseudo-atoms file)
Pseudo Atom[   3] Name O2       Oxidation: +0       Element: O    pdb-name: O    Scat. Types:   9   8 Mass=15.999400000 B-factor:1.000   
                 Charge=-0.600000000         Polarization=0.000000000  [A^3] (considered a charged atom and no polarization)  Interactions: yes
                 Anisotropic factor:    0.000 [-] (Relative), Radius:    0.680 [A], Framework-atom: yes (charge from pseudo-atoms file)
Pseudo Atom[   4] Name C1       Oxidation: +0       Element: C    pdb-name: C    Scat. Types:   7   6 Mass=12.010700000 B-factor:1.000   
                 Charge=0.475000000          Polarization=0.000000000  [A^3] (considered a charged atom and no polarization)  Interactions: yes
                 Anisotropic factor:    0.000 [-] (Relative), Radius:    0.720 [A], Framework-atom: yes (charge from pseudo-atoms file)
Pseudo Atom[   5] Name C2       Oxidation: +0       Element: C    pdb-name: C    Scat. Types:   7   6 Mass=12.010700000 B-factor:1.000   
                 Charge=0.125000000          Polarization=0.000000000  [A^3] (considered a charged atom and no polarization)  Interactions: yes
                 Anisotropic factor:    0.000 [-] (Relative), Radius:    0.720 [A], Framework-atom: yes (charge from pseudo-atoms file)
Pseudo Atom[   6] Name C3       Oxidation: +0       Element: C    pdb-name: C    Scat. Types:   7   6 Mass=12.010700000 B-factor:1.000   
                 Charge=-0.150000000         Polarization=0.000000000  [A^3] (considered a charged atom and no polarization)  Interactions: yes
                 Anisotropic factor:    0.000 [-] (Relative), Radius:    0.720 [A], Framework-atom: yes (charge from pseudo-atoms file)
Pseudo Atom[   7] Name H1       Oxidation: +0       Element: H    pdb-name: H    Scat. Types:   1   1 Mass=1.007940000  B-factor:1.000   
                 Charge=0.150000000          Polarization=0.000000000  [A^3] (considered a charged atom and no polarization)  Interactions: yes
                 Anisotropic factor:    0.000 [-] (Relative), Radius:    0.320 [A], Framework-atom: yes (charge from pseudo-atoms file)
Pseudo Atom[   8] Name He       Oxidation: +0       Element: He   pdb-name: He   Scat. Types:   3   2 Mass=4.002602000  B-factor:1.000   
                 Charge=0.000000000          Polarization=0.000000000  [A^3] (considered a chargeless atom and no polarization)  Interactions: yes
                 Anisotropic factor:    0.000 [-] (Relative), Radius:    1.000 [A], Framework-atom:  no
Pseudo Atom[   9] Name C_co2    Oxidation: +0       Element: C    pdb-name: C    Scat. Types:   7   6 Mass=12.000000000 B-factor:1.000   
                 Charge=0.651200000          Polarization=0.000000000  [A^3] (considered a charged atom and no polarization)  Interactions: yes
                 Anisotropic factor:    0.000 [-] (Relative), Radius:    0.720 [A], Framework-atom:  no
Pseudo Atom[  10] Name O_co2    Oxidation: +0       Element: O    pdb-name: O    Scat. Types:   9   8 Mass=15.999400000 B-factor:1.000   
                 Charge=-0.325600000         Polarization=0.000000000  [A^3] (considered a charged atom and no polarization)  Interactions: yes
                 Anisotropic factor:    0.000 [-] (Relative), Radius:    0.680 [A], Framework-atom:  no
Pseudo Atom[  11] Name O_o2     Oxidation: +0       Element: O    pdb-name: O    Scat. Types:   9   8 Mass=15.999400000 B-factor:1.000   
                 Charge=-0.112000000         Polarization=0.000000000  [A^3] (considered a charged atom and no polarization)  Interactions: yes
                 Anisotropic factor:    0.000 [-] (Relative), Radius:    0.700 [A], Framework-atom:  no
Pseudo Atom[  12] Name O_com    Oxidation: +0       Element: -    pdb-name: O    Scat. Types:   0   8 Mass=0.000000000  B-factor:1.000   
                 Charge=0.224000000          Polarization=0.000000000  [A^3] (considered a charged atom and no polarization)  Interactions: yes
                 Anisotropic factor:    0.000 [-] (Relative), Radius:    0.700 [A], Framework-atom:  no
Pseudo Atom[  13] Name N_n2     Oxidation: +0       Element: N    pdb-name: N    Scat. Types:   8   7 Mass=14.006740000 B-factor:1.000   
                 Charge=-0.405000000         Polarization=0.000000000  [A^3] (considered a charged atom and no polarization)  Interactions: yes
                 Anisotropic factor:    0.000 [-] (Relative), Radius:    0.700 [A], Framework-atom:  no
Pseudo Atom[  14] Name N_com    Oxidation: +0       Element: -    pdb-name: N    Scat. Types:   0   7 Mass=0.000000000  B-factor:1.000   
                 Charge=0.810000000          Polarization=0.000000000  [A^3] (considered a charged atom and no polarization)  Interactions: yes
                 Anisotropic factor:    0.000 [-] (Relative), Radius:    0.700 [A], Framework-atom:  no
Pseudo Atom[  15] Name Ar       Oxidation: +0       Element: Ar   pdb-name: Ar   Scat. Types:  19  18 Mass=39.948000000 B-factor:1.000   
                 Charge=0.000000000          Polarization=0.000000000  [A^3] (considered a chargeless atom and no polarization)  Interactions: yes
                 Anisotropic factor:    0.000 [-] (Relative), Radius:    0.700 [A], Framework-atom:  no
Pseudo Atom[  16] Name CH4      Oxidation: +0       Element: C    pdb-name: C    Scat. Types:   7   6 Mass=16.042460000 B-factor:1.000   
                 Charge=0.000000000          Polarization=0.000000000  [A^3] (considered a chargeless atom and no polarization)  Interactions: yes
                 Anisotropic factor:    0.000 [-] (Relative), Radius:    1.000 [A], Framework-atom:  no
Pseudo Atom[  17] Name CH3      Oxidation: +0       Element: C    pdb-name: C    Scat. Types:   7   6 Mass=15.034520000 B-factor:1.000   
                 Charge=0.000000000          Polarization=0.000000000  [A^3] (considered a chargeless atom and no polarization)  Interactions: yes
                 Anisotropic factor:    0.000 [-] (Relative), Radius:    1.000 [A], Framework-atom:  no
Pseudo Atom[  18] Name CH2      Oxidation: +0       Element: C    pdb-name: C    Scat. Types:   7   6 Mass=14.026580000 B-factor:1.000   
                 Charge=0.000000000          Polarization=0.000000000  [A^3] (considered a chargeless atom and no polarization)  Interactions: yes
                 Anisotropic factor:    0.000 [-] (Relative), Radius:    1.000 [A], Framework-atom:  no
Pseudo Atom[  19] Name CH       Oxidation: +0       Element: C    pdb-name: C    Scat. Types:   7   6 Mass=13.018640000 B-factor:1.000   
                 Charge=0.000000000          Polarization=0.000000000  [A^3] (considered a chargeless atom and no polarization)  Interactions: yes
                 Anisotropic factor:    0.000 [-] (Relative), Radius:    1.000 [A], Framework-atom:  no
Pseudo Atom[  20] Name C        Oxidation: +0       Element: C    pdb-name: C    Scat. Types:   7   6 Mass=12.000000000 B-factor:1.000   
                 Charge=0.000000000          Polarization=0.000000000  [A^3] (considered a chargeless atom and no polarization)  Interactions: yes
                 Anisotropic factor:    0.000 [-] (Relative), Radius:    1.000 [A], Framework-atom:  no


Forcefield: Dubbeldam2007FlexibleIRMOF-1
===========================================================================
Minimal distance: 1
CutOff VDW : 12.000000 (144.000000)
CutOff VDW switching on: 10.800000 (116.640000)
CutOff charge-charge : 12.000000 (144.000000)
CutOff charge-charge switching on: 7.800000 (60.840000)
CutOff charge-bonddipole : 12.000000 (144.000000)
CutOff charge-bondipole switching on: 8.400000 (70.560000)
CutOff bonddipole-bonddipole : 12.000000 (144.000000)
CutOff bonddipole-bondipole switching on: 9.000000 (81.000000)
Polarization is neglected
All potentials are shifted to zero at the Cutoff

General mixing rule: Lorentz-Berthelot mixing rules are used FIRST for cross terms
0 cross terms are overwritten using the individual mixing rules from the file 'force_field_mixing_rules.def'
and then 0 terms are overwritten using the specific interactions from the file 'force_field.def'

The force field and all the interactions:
    Zn1 -     Zn1 [LENNARD_JONES] p_0/k_B:   0.42000 [K], p_1: 2.70000 [A], shift/k_B:  -0.00021795 [K], tailcorrection: no
    Zn1 -      O1 [LENNARD_JONES] p_0/k_B:  17.14643 [K], p_1: 2.84000 [A], shift/k_B:  -0.01204980 [K], tailcorrection: no
    Zn1 -      O2 [LENNARD_JONES] p_0/k_B:   5.44151 [K], p_1: 2.90500 [A], shift/k_B:  -0.00438007 [K], tailcorrection: no
    Zn1 -      C1 [LENNARD_JONES] p_0/k_B:   4.44297 [K], p_1: 3.22000 [A], shift/k_B:  -0.00663161 [K], tailcorrection: no
    Zn1 -      C2 [LENNARD_JONES] p_0/k_B:   4.48344 [K], p_1: 3.08500 [A], shift/k_B:  -0.00517594 [K], tailcorrection: no
    Zn1 -      C3 [LENNARD_JONES] p_0/k_B:   4.48344 [K], p_1: 3.08500 [A], shift/k_B:  -0.00517594 [K], tailcorrection: no
    Zn1 -      H1 [LENNARD_JONES] p_0/k_B:   1.79248 [K], p_1: 2.77500 [A], shift/k_B:  -0.00109633 [K], tailcorrection: no
    Zn1 -      He [LENNARD_JONES] p_0/k_B:   2.13963 [K], p_1: 2.67000 [A], shift/k_B:  -0.00103831 [K], tailcorrection: no
    Zn1 -   C_co2 [LENNARD_JONES] p_0/k_B:   3.54568 [K], p_1: 2.72250 [A], shift/k_B:  -0.00193384 [K], tailcorrection: no
    Zn1 -   O_co2 [LENNARD_JONES] p_0/k_B:   5.99848 [K], p_1: 2.85850 [A], shift/k_B:  -0.00438292 [K], tailcorrection: no
    Zn1 -   O_com [ZERO_POTENTIAL]
    Zn1 -    N_n2 [LENNARD_JONES] p_0/k_B:   4.01063 [K], p_1: 3.00300 [A], shift/k_B:  -0.00393922 [K], tailcorrection: no
    Zn1 -   N_com [ZERO_POTENTIAL]
    Zn1 -      Ar [LENNARD_JONES] p_0/k_B:   7.21868 [K], p_1: 3.04000 [A], shift/k_B:  -0.00763057 [K], tailcorrection: no
    Zn1 -     CH4 [LENNARD_JONES] p_0/k_B:   8.15904 [K], p_1: 3.21000 [A], shift/k_B:  -0.01195316 [K], tailcorrection: no
    Zn1 -     CH3 [LENNARD_JONES] p_0/k_B:   6.73498 [K], p_1: 3.23000 [A], shift/k_B:  -0.01024139 [K], tailcorrection: no
    Zn1 -     CH2 [LENNARD_JONES] p_0/k_B:   4.84974 [K], p_1: 3.33000 [A], shift/k_B:  -0.00885438 [K], tailcorrection: no
    Zn1 -      CH [LENNARD_JONES] p_0/k_B:   2.67208 [K], p_1: 3.68500 [A], shift/k_B:  -0.00895534 [K], tailcorrection: no
    Zn1 -       C [LENNARD_JONES] p_0/k_B:   0.57966 [K], p_1: 4.54000 [A], shift/k_B:  -0.00677956 [K], tailcorrection: no
     O1 -      O1 [LENNARD_JONES] p_0/k_B: 700.00000 [K], p_1: 2.98000 [A], shift/k_B:  -0.65654768 [K], tailcorrection: no
     O1 -      O2 [LENNARD_JONES] p_0/k_B: 222.14860 [K], p_1: 3.04500 [A], shift/k_B:  -0.23715043 [K], tailcorrection: no
     O1 -      C1 [LENNARD_JONES] p_0/k_B: 181.38357 [K], p_1: 3.36000 [A], shift/k_B:  -0.34945946 [K], tailcorrection: no
     O1 -      C2 [LENNARD_JONES] p_0/k_B: 183.03552 [K], p_1: 3.22500 [A], shift/k_B:  -0.27575445 [K], tailcorrection: no
     O1 -      C3 [LENNARD_JONES] p_0/k_B: 183.03552 [K], p_1: 3.22500 [A], shift/k_B:  -0.27575445 [K], tailcorrection: no
     O1 -      H1 [LENNARD_JONES] p_0/k_B:  73.17787 [K], p_1: 2.91500 [A], shift/k_B:  -0.06013044 [K], tailcorrection: no
     O1 -      He [LENNARD_JONES] p_0/k_B:  87.34987 [K], p_1: 2.81000 [A], shift/k_B:  -0.05759716 [K], tailcorrection: no
     O1 -   C_co2 [LENNARD_JONES] p_0/k_B: 144.75186 [K], p_1: 2.86250 [A], shift/k_B:  -0.10665706 [K], tailcorrection: no
     O1 -   O_co2 [LENNARD_JONES] p_0/k_B: 244.88712 [K], p_1: 2.99850 [A], shift/k_B:  -0.23837299 [K], tailcorrection: no
     O1 -   O_com [ZERO_POTENTIAL]
     O1 -    N_n2 [LENNARD_JONES] p_0/k_B: 163.73332 [K], p_1: 3.14300 [A], shift/k_B:  -0.21136625 [K], tailcorrection: no
     O1 -   N_com [ZERO_POTENTIAL]
     O1 -      Ar [LENNARD_JONES] p_0/k_B: 294.70154 [K], p_1: 3.18000 [A], shift/k_B:  -0.40810058 [K], tailcorrection: no
     O1 -     CH4 [LENNARD_JONES] p_0/k_B: 333.09158 [K], p_1: 3.35000 [A], shift/k_B:  -0.63037559 [K], tailcorrection: no
     O1 -     CH3 [LENNARD_JONES] p_0/k_B: 274.95454 [K], p_1: 3.37000 [A], shift/k_B:  -0.53926188 [K], tailcorrection: no
     O1 -     CH2 [LENNARD_JONES] p_0/k_B: 197.98990 [K], p_1: 3.47000 [A], shift/k_B:  -0.46274146 [K], tailcorrection: no
     O1 -      CH [LENNARD_JONES] p_0/k_B: 109.08712 [K], p_1: 3.82500 [A], shift/k_B:  -0.45717123 [K], tailcorrection: no
     O1 -       C [LENNARD_JONES] p_0/k_B:  23.66432 [K], p_1: 4.68000 [A], shift/k_B:  -0.33190270 [K], tailcorrection: no
     O2 -      O2 [LENNARD_JONES] p_0/k_B:  70.50000 [K], p_1: 3.11000 [A], shift/k_B:  -0.08542645 [K], tailcorrection: no
     O2 -      C1 [LENNARD_JONES] p_0/k_B:  57.56301 [K], p_1: 3.42500 [A], shift/k_B:  -0.12440694 [K], tailcorrection: no
     O2 -      C2 [LENNARD_JONES] p_0/k_B:  58.08726 [K], p_1: 3.29000 [A], shift/k_B:  -0.09863801 [K], tailcorrection: no
     O2 -      C3 [LENNARD_JONES] p_0/k_B:  58.08726 [K], p_1: 3.29000 [A], shift/k_B:  -0.09863801 [K], tailcorrection: no
     O2 -      H1 [LENNARD_JONES] p_0/k_B:  23.22337 [K], p_1: 2.98000 [A], shift/k_B:  -0.02178179 [K], tailcorrection: no
     O2 -      He [LENNARD_JONES] p_0/k_B:  27.72093 [K], p_1: 2.87500 [A], shift/k_B:  -0.02096647 [K], tailcorrection: no
     O2 -   C_co2 [LENNARD_JONES] p_0/k_B:  45.93775 [K], p_1: 2.92750 [A], shift/k_B:  -0.03872862 [K], tailcorrection: no
     O2 -   O_co2 [LENNARD_JONES] p_0/k_B:  77.71619 [K], p_1: 3.06350 [A], shift/k_B:  -0.08603419 [K], tailcorrection: no
     O2 -   O_com [ZERO_POTENTIAL]
     O2 -    N_n2 [LENNARD_JONES] p_0/k_B:  51.96161 [K], p_1: 3.20800 [A], shift/k_B:  -0.07584077 [K], tailcorrection: no
     O2 -   N_com [ZERO_POTENTIAL]
     O2 -      Ar [LENNARD_JONES] p_0/k_B:  93.52505 [K], p_1: 3.24500 [A], shift/k_B:  -0.14622405 [K], tailcorrection: no
     O2 -     CH4 [LENNARD_JONES] p_0/k_B: 105.70833 [K], p_1: 3.41500 [A], shift/k_B:  -0.22448907 [K], tailcorrection: no
     O2 -     CH3 [LENNARD_JONES] p_0/k_B:  87.25824 [K], p_1: 3.43500 [A], shift/k_B:  -0.19191124 [K], tailcorrection: no
     O2 -     CH2 [LENNARD_JONES] p_0/k_B:  62.83311 [K], p_1: 3.53500 [A], shift/k_B:  -0.16413972 [K], tailcorrection: no
     O2 -      CH [LENNARD_JONES] p_0/k_B:  34.61936 [K], p_1: 3.89000 [A], shift/k_B:  -0.16050364 [K], tailcorrection: no
     O2 -       C [LENNARD_JONES] p_0/k_B:   7.50999 [K], p_1: 4.74500 [A], shift/k_B:  -0.11438423 [K], tailcorrection: no
     C1 -      C1 [LENNARD_JONES] p_0/k_B:  47.00000 [K], p_1: 3.74000 [A], shift/k_B:  -0.17214791 [K], tailcorrection: no
     C1 -      C2 [LENNARD_JONES] p_0/k_B:  47.42805 [K], p_1: 3.60500 [A], shift/k_B:  -0.13935419 [K], tailcorrection: no
     C1 -      C3 [LENNARD_JONES] p_0/k_B:  47.42805 [K], p_1: 3.60500 [A], shift/k_B:  -0.13935419 [K], tailcorrection: no
     C1 -      H1 [LENNARD_JONES] p_0/k_B:  18.96180 [K], p_1: 3.29500 [A], shift/k_B:  -0.03249365 [K], tailcorrection: no
     C1 -      He [LENNARD_JONES] p_0/k_B:  22.63405 [K], p_1: 3.19000 [A], shift/k_B:  -0.03193931 [K], tailcorrection: no
     C1 -   C_co2 [LENNARD_JONES] p_0/k_B:  37.50801 [K], p_1: 3.24250 [A], shift/k_B:  -0.05837238 [K], tailcorrection: no
     C1 -   O_co2 [LENNARD_JONES] p_0/k_B:  63.45500 [K], p_1: 3.37850 [A], shift/k_B:  -0.12634718 [K], tailcorrection: no
     C1 -   O_com [ZERO_POTENTIAL]
     C1 -    N_n2 [LENNARD_JONES] p_0/k_B:  42.42648 [K], p_1: 3.52300 [A], shift/k_B:  -0.10859434 [K], tailcorrection: no
     C1 -   N_com [ZERO_POTENTIAL]
     C1 -      Ar [LENNARD_JONES] p_0/k_B:  76.36288 [K], p_1: 3.56000 [A], shift/k_B:  -0.20809356 [K], tailcorrection: no
     C1 -     CH4 [LENNARD_JONES] p_0/k_B:  86.31049 [K], p_1: 3.73000 [A], shift/k_B:  -0.31109798 [K], tailcorrection: no
     C1 -     CH3 [LENNARD_JONES] p_0/k_B:  71.24605 [K], p_1: 3.75000 [A], shift/k_B:  -0.26516504 [K], tailcorrection: no
     C1 -     CH2 [LENNARD_JONES] p_0/k_B:  51.30302 [K], p_1: 3.85000 [A], shift/k_B:  -0.22356609 [K], tailcorrection: no
     C1 -      CH [LENNARD_JONES] p_0/k_B:  28.26659 [K], p_1: 4.20500 [A], shift/k_B:  -0.20894746 [K], tailcorrection: no
     C1 -       C [LENNARD_JONES] p_0/k_B:   6.13188 [K], p_1: 5.06000 [A], shift/k_B:  -0.13709495 [K], tailcorrection: no
     C2 -      C2 [LENNARD_JONES] p_0/k_B:  47.86000 [K], p_1: 3.47000 [A], shift/k_B:  -0.11185826 [K], tailcorrection: no
     C2 -      C3 [LENNARD_JONES] p_0/k_B:  47.86000 [K], p_1: 3.47000 [A], shift/k_B:  -0.11185826 [K], tailcorrection: no
     C2 -      H1 [LENNARD_JONES] p_0/k_B:  19.13450 [K], p_1: 3.16000 [A], shift/k_B:  -0.02551334 [K], tailcorrection: no
     C2 -      He [LENNARD_JONES] p_0/k_B:  22.84018 [K], p_1: 3.05500 [A], shift/k_B:  -0.02486687 [K], tailcorrection: no
     C2 -   C_co2 [LENNARD_JONES] p_0/k_B:  37.84962 [K], p_1: 3.10750 [A], shift/k_B:  -0.04564254 [K], tailcorrection: no
     C2 -   O_co2 [LENNARD_JONES] p_0/k_B:  64.03291 [K], p_1: 3.24350 [A], shift/k_B:  -0.09983661 [K], tailcorrection: no
     C2 -   O_com [ZERO_POTENTIAL]
     C2 -    N_n2 [LENNARD_JONES] p_0/k_B:  42.81288 [K], p_1: 3.38800 [A], shift/k_B:  -0.08669365 [K], tailcorrection: no
     C2 -   N_com [ZERO_POTENTIAL]
     C2 -      Ar [LENNARD_JONES] p_0/k_B:  77.05836 [K], p_1: 3.42500 [A], shift/k_B:  -0.16654088 [K], tailcorrection: no
     C2 -     CH4 [LENNARD_JONES] p_0/k_B:  87.09656 [K], p_1: 3.59500 [A], shift/k_B:  -0.25168236 [K], tailcorrection: no
     C2 -     CH3 [LENNARD_JONES] p_0/k_B:  71.89492 [K], p_1: 3.61500 [A], shift/k_B:  -0.21478098 [K], tailcorrection: no
     C2 -     CH2 [LENNARD_JONES] p_0/k_B:  51.77026 [K], p_1: 3.71500 [A], shift/k_B:  -0.18214753 [K], tailcorrection: no
     C2 -      CH [LENNARD_JONES] p_0/k_B:  28.52402 [K], p_1: 4.07000 [A], shift/k_B:  -0.17341561 [K], tailcorrection: no
     C2 -       C [LENNARD_JONES] p_0/k_B:   6.18773 [K], p_1: 4.92500 [A], shift/k_B:  -0.11772284 [K], tailcorrection: no
     C3 -      C3 [LENNARD_JONES] p_0/k_B:  47.86000 [K], p_1: 3.47000 [A], shift/k_B:  -0.11185826 [K], tailcorrection: no
     C3 -      H1 [LENNARD_JONES] p_0/k_B:  19.13450 [K], p_1: 3.16000 [A], shift/k_B:  -0.02551334 [K], tailcorrection: no
     C3 -      He [LENNARD_JONES] p_0/k_B:  22.84018 [K], p_1: 3.05500 [A], shift/k_B:  -0.02486687 [K], tailcorrection: no
     C3 -   C_co2 [LENNARD_JONES] p_0/k_B:  37.84962 [K], p_1: 3.10750 [A], shift/k_B:  -0.04564254 [K], tailcorrection: no
     C3 -   O_co2 [LENNARD_JONES] p_0/k_B:  64.03291 [K], p_1: 3.24350 [A], shift/k_B:  -0.09983661 [K], tailcorrection: no
     C3 -   O_com [ZERO_POTENTIAL]
     C3 -    N_n2 [LENNARD_JONES] p_0/k_B:  42.81288 [K], p_1: 3.38800 [A], shift/k_B:  -0.08669365 [K], tailcorrection: no
     C3 -   N_com [ZERO_POTENTIAL]
     C3 -      Ar [LENNARD_JONES] p_0/k_B:  77.05836 [K], p_1: 3.42500 [A], shift/k_B:  -0.16654088 [K], tailcorrection: no
     C3 -     CH4 [LENNARD_JONES] p_0/k_B:  87.09656 [K], p_1: 3.59500 [A], shift/k_B:  -0.25168236 [K], tailcorrection: no
     C3 -     CH3 [LENNARD_JONES] p_0/k_B:  71.89492 [K], p_1: 3.61500 [A], shift/k_B:  -0.21478098 [K], tailcorrection: no
     C3 -     CH2 [LENNARD_JONES] p_0/k_B:  51.77026 [K], p_1: 3.71500 [A], shift/k_B:  -0.18214753 [K], tailcorrection: no
     C3 -      CH [LENNARD_JONES] p_0/k_B:  28.52402 [K], p_1: 4.07000 [A], shift/k_B:  -0.17341561 [K], tailcorrection: no
     C3 -       C [LENNARD_JONES] p_0/k_B:   6.18773 [K], p_1: 4.92500 [A], shift/k_B:  -0.11772284 [K], tailcorrection: no
     H1 -      H1 [LENNARD_JONES] p_0/k_B:   7.65000 [K], p_1: 2.85000 [A], shift/k_B:  -0.00549067 [K], tailcorrection: no
     H1 -      He [LENNARD_JONES] p_0/k_B:   9.13154 [K], p_1: 2.74500 [A], shift/k_B:  -0.00523249 [K], tailcorrection: no
     H1 -   C_co2 [LENNARD_JONES] p_0/k_B:  15.13233 [K], p_1: 2.79750 [A], shift/k_B:  -0.00971470 [K], tailcorrection: no
     H1 -   O_co2 [LENNARD_JONES] p_0/k_B:  25.60045 [K], p_1: 2.93350 [A], shift/k_B:  -0.02184963 [K], tailcorrection: no
     H1 -   O_com [ZERO_POTENTIAL]
     H1 -    N_n2 [LENNARD_JONES] p_0/k_B:  17.11665 [K], p_1: 3.07800 [A], shift/k_B:  -0.01949303 [K], tailcorrection: no
     H1 -   N_com [ZERO_POTENTIAL]
     H1 -      Ar [LENNARD_JONES] p_0/k_B:  30.80804 [K], p_1: 3.11500 [A], shift/k_B:  -0.03769225 [K], tailcorrection: no
     H1 -     CH4 [LENNARD_JONES] p_0/k_B:  34.82133 [K], p_1: 3.28500 [A], shift/k_B:  -0.05859321 [K], tailcorrection: no
     H1 -     CH3 [LENNARD_JONES] p_0/k_B:  28.74369 [K], p_1: 3.30500 [A], shift/k_B:  -0.05015963 [K], tailcorrection: no
     H1 -     CH2 [LENNARD_JONES] p_0/k_B:  20.69783 [K], p_1: 3.40500 [A], shift/k_B:  -0.04318901 [K], tailcorrection: no
     H1 -      CH [LENNARD_JONES] p_0/k_B:  11.40395 [K], p_1: 3.76000 [A], shift/k_B:  -0.04312644 [K], tailcorrection: no
     H1 -       C [LENNARD_JONES] p_0/k_B:   2.47386 [K], p_1: 4.61500 [A], shift/k_B:  -0.03191325 [K], tailcorrection: no
     He -      He [LENNARD_JONES] p_0/k_B:  10.90000 [K], p_1: 2.64000 [A], shift/k_B:  -0.00494280 [K], tailcorrection: no
     He -   C_co2 [LENNARD_JONES] p_0/k_B:  18.06294 [K], p_1: 2.69250 [A], shift/k_B:  -0.00921806 [K], tailcorrection: no
     He -   O_co2 [LENNARD_JONES] p_0/k_B:  30.55837 [K], p_1: 2.82850 [A], shift/k_B:  -0.02095875 [K], tailcorrection: no
     He -   O_com [ZERO_POTENTIAL]
     He -    N_n2 [LENNARD_JONES] p_0/k_B:  20.43155 [K], p_1: 2.97300 [A], shift/k_B:  -0.01889482 [K], tailcorrection: no
     He -   N_com [ZERO_POTENTIAL]
     He -      Ar [LENNARD_JONES] p_0/k_B:  36.77449 [K], p_1: 3.01000 [A], shift/k_B:  -0.03662773 [K], tailcorrection: no
     He -     CH4 [LENNARD_JONES] p_0/k_B:  41.56501 [K], p_1: 3.18000 [A], shift/k_B:  -0.05755893 [K], tailcorrection: no
     He -     CH3 [LENNARD_JONES] p_0/k_B:  34.31035 [K], p_1: 3.20000 [A], shift/k_B:  -0.04933343 [K], tailcorrection: no
     He -     CH2 [LENNARD_JONES] p_0/k_B:  24.70627 [K], p_1: 3.30000 [A], shift/k_B:  -0.04272436 [K], tailcorrection: no
     He -      CH [LENNARD_JONES] p_0/k_B:  13.61249 [K], p_1: 3.65500 [A], shift/k_B:  -0.04343978 [K], tailcorrection: no
     He -       C [LENNARD_JONES] p_0/k_B:   2.95296 [K], p_1: 4.51000 [A], shift/k_B:  -0.03319436 [K], tailcorrection: no
  C_co2 -   C_co2 [LENNARD_JONES] p_0/k_B:  29.93300 [K], p_1: 2.74500 [A], shift/k_B:  -0.01715199 [K], tailcorrection: no
  C_co2 -   O_co2 [LENNARD_JONES] p_0/k_B:  50.63981 [K], p_1: 2.88100 [A], shift/k_B:  -0.03878296 [K], tailcorrection: no
  C_co2 -   O_com [ZERO_POTENTIAL]
  C_co2 -    N_n2 [LENNARD_JONES] p_0/k_B:  33.85815 [K], p_1: 3.02550 [A], shift/k_B:  -0.03477820 [K], tailcorrection: no
  C_co2 -   N_com [ZERO_POTENTIAL]
  C_co2 -      Ar [LENNARD_JONES] p_0/k_B:  60.94085 [K], p_1: 3.06250 [A], shift/k_B:  -0.06733139 [K], tailcorrection: no
  C_co2 -     CH4 [LENNARD_JONES] p_0/k_B:  68.87946 [K], p_1: 3.23250 [A], shift/k_B:  -0.10522708 [K], tailcorrection: no
  C_co2 -     CH3 [LENNARD_JONES] p_0/k_B:  56.85740 [K], p_1: 3.25250 [A], shift/k_B:  -0.09013451 [K], tailcorrection: no
  C_co2 -     CH2 [LENNARD_JONES] p_0/k_B:  40.94201 [K], p_1: 3.35250 [A], shift/k_B:  -0.07783014 [K], tailcorrection: no
  C_co2 -      CH [LENNARD_JONES] p_0/k_B:  22.55795 [K], p_1: 3.70750 [A], shift/k_B:  -0.07841175 [K], tailcorrection: no
  C_co2 -       C [LENNARD_JONES] p_0/k_B:   4.89351 [K], p_1: 4.56250 [A], shift/k_B:  -0.05895165 [K], tailcorrection: no
  O_co2 -   O_co2 [LENNARD_JONES] p_0/k_B:  85.67100 [K], p_1: 3.01700 [A], shift/k_B:  -0.08652638 [K], tailcorrection: no
  O_co2 -   O_com [ZERO_POTENTIAL]
  O_co2 -    N_n2 [LENNARD_JONES] p_0/k_B:  57.28026 [K], p_1: 3.16150 [A], shift/k_B:  -0.07659340 [K], tailcorrection: no
  O_co2 -   N_com [ZERO_POTENTIAL]
  O_co2 -      Ar [LENNARD_JONES] p_0/k_B: 103.09802 [K], p_1: 3.19850 [A], shift/k_B:  -0.14782408 [K], tailcorrection: no
  O_co2 -     CH4 [LENNARD_JONES] p_0/k_B: 116.52834 [K], p_1: 3.36850 [A], shift/k_B:  -0.22793491 [K], tailcorrection: no
  O_co2 -     CH3 [LENNARD_JONES] p_0/k_B:  96.18975 [K], p_1: 3.38850 [A], shift/k_B:  -0.19495125 [K], tailcorrection: no
  O_co2 -     CH2 [LENNARD_JONES] p_0/k_B:  69.26454 [K], p_1: 3.48850 [A], shift/k_B:  -0.16712968 [K], tailcorrection: no
  O_co2 -      CH [LENNARD_JONES] p_0/k_B:  38.16290 [K], p_1: 3.84350 [A], shift/k_B:  -0.16462890 [K], tailcorrection: no
  O_co2 -       C [LENNARD_JONES] p_0/k_B:   8.27870 [K], p_1: 4.69850 [A], shift/k_B:  -0.11888367 [K], tailcorrection: no
   O_o2 -   O_com [ZERO_POTENTIAL]
   O_o2 -   N_com [ZERO_POTENTIAL]
  O_com -   O_com [ZERO_POTENTIAL]
  O_com -    N_n2 [ZERO_POTENTIAL]
  O_com -   N_com [ZERO_POTENTIAL]
  O_com -      Ar [ZERO_POTENTIAL]
  O_com -     CH4 [ZERO_POTENTIAL]
  O_com -     CH3 [ZERO_POTENTIAL]
  O_com -     CH2 [ZERO_POTENTIAL]
  O_com -      CH [ZERO_POTENTIAL]
  O_com -       C [ZERO_POTENTIAL]
   N_n2 -    N_n2 [LENNARD_JONES] p_0/k_B:  38.29800 [K], p_1: 3.30600 [A], shift/k_B:  -0.06695388 [K], tailcorrection: no
   N_n2 -   N_com [ZERO_POTENTIAL]
   N_n2 -      Ar [LENNARD_JONES] p_0/k_B:  68.93209 [K], p_1: 3.34300 [A], shift/k_B:  -0.12882767 [K], tailcorrection: no
   N_n2 -     CH4 [LENNARD_JONES] p_0/k_B:  77.91170 [K], p_1: 3.51300 [A], shift/k_B:  -0.19605171 [K], tailcorrection: no
   N_n2 -     CH3 [LENNARD_JONES] p_0/k_B:  64.31317 [K], p_1: 3.53300 [A], shift/k_B:  -0.16743696 [K], tailcorrection: no
   N_n2 -     CH2 [LENNARD_JONES] p_0/k_B:  46.31078 [K], p_1: 3.63300 [A], shift/k_B:  -0.14253201 [K], tailcorrection: no
   N_n2 -      CH [LENNARD_JONES] p_0/k_B:  25.51599 [K], p_1: 3.98800 [A], shift/k_B:  -0.13731894 [K], tailcorrection: no
   N_n2 -       C [LENNARD_JONES] p_0/k_B:   5.53520 [K], p_1: 4.84300 [A], shift/k_B:  -0.09526024 [K], tailcorrection: no
  N_com -   N_com [ZERO_POTENTIAL]
  N_com -      Ar [ZERO_POTENTIAL]
  N_com -     CH4 [ZERO_POTENTIAL]
  N_com -     CH3 [ZERO_POTENTIAL]
  N_com -     CH2 [ZERO_POTENTIAL]
  N_com -      CH [ZERO_POTENTIAL]
  N_com -       C [ZERO_POTENTIAL]
     Ar -      Ar [LENNARD_JONES] p_0/k_B: 124.07000 [K], p_1: 3.38000 [A], shift/k_B:  -0.24769804 [K], tailcorrection: no
     Ar -     CH4 [LENNARD_JONES] p_0/k_B: 140.23229 [K], p_1: 3.55000 [A], shift/k_B:  -0.37575039 [K], tailcorrection: no
     Ar -     CH3 [LENNARD_JONES] p_0/k_B: 115.75647 [K], p_1: 3.57000 [A], shift/k_B:  -0.32079374 [K], tailcorrection: no
     Ar -     CH2 [LENNARD_JONES] p_0/k_B:  83.35418 [K], p_1: 3.67000 [A], shift/k_B:  -0.27260937 [K], tailcorrection: no
     Ar -      CH [LENNARD_JONES] p_0/k_B:  45.92592 [K], p_1: 4.02500 [A], shift/k_B:  -0.26122023 [K], tailcorrection: no
     Ar -       C [LENNARD_JONES] p_0/k_B:   9.96273 [K], p_1: 4.88000 [A], shift/k_B:  -0.17943247 [K], tailcorrection: no
    CH4 -     CH4 [LENNARD_JONES] p_0/k_B: 158.50000 [K], p_1: 3.72000 [A], shift/k_B:  -0.56217796 [K], tailcorrection: no
    CH4 -     CH3 [LENNARD_JONES] p_0/k_B: 130.83577 [K], p_1: 3.74000 [A], shift/k_B:  -0.47921501 [K], tailcorrection: no
    CH4 -     CH2 [LENNARD_JONES] p_0/k_B:  94.21253 [K], p_1: 3.84000 [A], shift/k_B:  -0.40420524 [K], tailcorrection: no
    CH4 -      CH [LENNARD_JONES] p_0/k_B:  51.90857 [K], p_1: 4.19500 [A], shift/k_B:  -0.37827707 [K], tailcorrection: no
    CH4 -       C [LENNARD_JONES] p_0/k_B:  11.26055 [K], p_1: 5.05000 [A], shift/k_B:  -0.24880626 [K], tailcorrection: no
    CH3 -     CH3 [LENNARD_JONES] p_0/k_B: 108.00000 [K], p_1: 3.76000 [A], shift/k_B:  -0.40842485 [K], tailcorrection: no
    CH3 -     CH2 [LENNARD_JONES] p_0/k_B:  77.76889 [K], p_1: 3.86000 [A], shift/k_B:  -0.34420794 [K], tailcorrection: no
    CH3 -      CH [LENNARD_JONES] p_0/k_B:  42.84857 [K], p_1: 4.21500 [A], shift/k_B:  -0.32127575 [K], tailcorrection: no
    CH3 -       C [LENNARD_JONES] p_0/k_B:   9.29516 [K], p_1: 5.07000 [A], shift/k_B:  -0.21028090 [K], tailcorrection: no
    CH2 -     CH2 [LENNARD_JONES] p_0/k_B:  56.00000 [K], p_1: 3.96000 [A], shift/k_B:  -0.28891522 [K], tailcorrection: no
    CH2 -      CH [LENNARD_JONES] p_0/k_B:  30.85450 [K], p_1: 4.31500 [A], shift/k_B:  -0.26621710 [K], tailcorrection: no
    CH2 -       C [LENNARD_JONES] p_0/k_B:   6.69328 [K], p_1: 5.17000 [A], shift/k_B:  -0.17012512 [K], tailcorrection: no
     CH -      CH [LENNARD_JONES] p_0/k_B:  17.00000 [K], p_1: 4.67000 [A], shift/k_B:  -0.23540268 [K], tailcorrection: no
     CH -       C [LENNARD_JONES] p_0/k_B:   3.68782 [K], p_1: 5.52500 [A], shift/k_B:  -0.13918063 [K], tailcorrection: no
      C -       C [LENNARD_JONES] p_0/k_B:   0.80000 [K], p_1: 6.38000 [A], shift/k_B:  -0.07064236 [K], tailcorrection: no


MoleculeDefinitions:
===========================================================================
Component 0 [CO2] (Adsorbate molecule)

	MoleculeDefinitions: ExampleDefinitions
	Component contains (at least some) atoms which are charged
	Component contains no atoms with point dipoles (polarization)
	Component has a net charge of 0.000000

	Ideal chain Rosenbluth weight: 1
	Ideal chain total energy: 0.000000

	Critical temparure [K]: 304.128200
	Critical pressure [Pa]: 7377300.000000
	Acentric factor [-]: 0.223940

	RXMC partition factor ln(q/V) [ln(A^(-3))]:       0.0000000000

	Fluid is a vapour

	MolFraction:           0.2500000000 [-]
	Compressibility:       0.9714389725 [-]

	Density of the bulk fluid phase:      18.1580726483 [kg/m^3]

	Binary mixture EOS parameters:  (0): 0.000000 (1): 0.000000

	Amount of excess molecules:       0.8675190741 [-]

	Conversion factor molecules/unit cell -> mol/kg:       0.1623747175 [-]
	Conversion factor molecules/unit cell -> mg/g:       7.1442927209 [-]
	Conversion factor molecules/unit cell -> cm^3 STP/gr:       3.6394629804 [-]
	Conversion factor molecules/unit cell -> cm^3 STP/cm^3:       2.1592046669 [-]
	Conversion factor mol/kg -> cm^3 STP/gr:      22.4139757476 [-]
	Conversion factor mol/kg -> cm^3 STP/cm^3:      13.2976654244 [-]

	Partial pressure:    250000.00000000000000 [Pa]
	                       1874.99999999999977 [Torr]
	                          2.50000000000000 [bar]
	                          2.46730816679003 [atm]

	Fugacity coefficient:       0.9503504709 [-]

	Partial fugacity:    237587.61773457151139 [Pa]
	                       1781.90713300928633 [Torr]
	                          2.37587617734572 [bar]
	                          2.34480747825879 [atm]

	Molecule contains 3 number of atoms
		atom:    0  is of type:   10 [     O_co2] (group: 0)
		atom:    1  is of type:    9 [     C_co2] (group: 0)
		atom:    2  is of type:   10 [     O_co2] (group: 0)

	Molecule contains 0 chirality centers

	Molecule contains 1 number of groups

		group: 0 containing: 3 elements
		-------------------------------------------------
		the group is rigid and linear
		Mass: 43.998800 [a.u.]
		Mass: 4.238536 [kg/m^3]

		Rotational Degrees of freedom: 2
		Diagonalized inertia vector:      42.2448477588
		                                  42.2448477588
		                                   0.0000000000
		number of atoms: 3
			element: 0 atom: 0 [     O_co2] Charge: -0.325600 Anisotropy: 0.000000 Position:  0.000000 -0.000000  1.149000 Connectivity: 1 (1 )
			element: 1 atom: 1 [     C_co2] Charge:  0.651200 Anisotropy: 0.000000 Position:  0.000000 -0.000000  0.000000 Connectivity: 2 (0 2 )
			element: 2 atom: 2 [     O_co2] Charge: -0.325600 Anisotropy: 0.000000 Position:  0.000000 -0.000000 -1.149000 Connectivity: 1 (1 )
		number of permanent dipoles: 0
		number of polarizabilities: 0

		Dipole:           0.0000000000 [D]
		Quadrupole:       2.0646942053       2.0646942053      -4.1293884107 [D Angstrom]
		Quadrupole tensor [D Angstrom]
				       2.0646942053       0.0000000000       0.0000000000
				       0.0000000000       2.0646942053       0.0000000000
				       0.0000000000       0.0000000000      -4.1293884107

	Starting bead for growth               : 0

	Degrees of freedom                     : 0
	Translational degrees of freedom       : 0
	Rotational degrees of freedom          : 0
	Vibrational degrees of freedom         : 0
	Constraint degrees of freedom          : 0

	Number of atoms                        : 3

	Number of constraint bonds             : 0
	Number of constraint bends             : 0
	Number of constraint inversion bends   : 0
	Number of constraint torsions          : 0
	Number of constraint improper torsions : 0
	Number of constraint improper torsions : 0

	Number of bonds                        : 2
	Number of Urey-Bradleys                : 0
	Number of bends                        : 0
	Number of inversion bends              : 0
	Number of torsions                     : 0
	Number of improper torsions            : 0
	Number of improper torsions            : 0

	Number of bond/bond cross terms        : 0
	Number of bond/bend cross terms        : 0
	Number of bend/bend cross terms        : 0
	Number of stretch/torsion cross terms  : 0
	Number of bend/torsion cross terms     : 0

	Number of charges                      : 3
	Number of bond-dipoles                 : 0

	Number of intra Van der Waals                             : 0
	Number of intra charge-charge Coulomb                     : 0
	Number of intra charge-bonddipole Coulomb                 : 0
	Number of intra bonddipole-bonddipole Coulomb             : 0

	Number of excluded intra charge-charge Coulomb                     : 3
	Number of excluded intra charge-bonddipole Coulomb                 : 0
	Number of excluded intra bonddipole-bonddipole Coulomb             : 0

	Number of cbmc-config moves                               : 0

	Particle Moves:             
		ProbabilityTranslationMove:                  16.666667
			TranslationDirection:      XYZ
		Percentage of random translation moves:            0.000000
		Percentage of rotation moves:                      0.000000
		Percentage of random rotation moves:               0.000000
		Percentage of partial reinsertion moves:           0.000000
		Percentage of reinsertion moves:                   16.666667
		Percentage of reinsertion-in-place moves:          0.000000
		Percentage of reinsertion-in-plane moves:          0.000000
		Percentage of identity-change moves:               33.333333
			move 0    component 0 => 0
			move 1    component 0 => 1
		Percentage of swap (insert/delete) moves:          33.333333
		Percentage of CF swap lambda moves:                0.000000
		Percentage of CB/CFMC swap lambda moves:           0.000000
		Percentage of Widom insertion moves:               0.000000
		Percentage of CF-Widom insertion moves:            0.000000
		Percentage of Gibbs Widom insertion moves:         0.000000
		Percentage of surface-area moves:                  0.000000
		Percentage of Gibbs particle-transfer moves:       0.000000
		Percentage of Gibbs identity-change moves:         0.000000
		Percentage of CF Gibbs lambda-transfer moves:      0.000000
		Percentage of CB/CFMC Gibbs lambda-transfer moves: 0.000000
		Percentage of exchange frac./int. particle moves:  0.000000
		Percentage of fractional mol. to other box moves:  0.000000
		Percentage of lambda-change moves:                 0.000000
		Percentage of fractional to integer moves:         0.000000

	System Moves:
		Percentage of parallel-tempering moves:            0.000000
		Percentage of hyper-parallel-tempering moves:      0.000000
		Percentage of parallel-mol-fraction moves:         0.000000
			   Component A: 0 B: 1
		Percentage of chiral inversion moves:              0.000000
		Percentage of Hybrid-NVE moves:                    0.000000
		Percentage of Hybrid-NPH moves:                    0.000000
		Percentage of Hybrid-NPHPR moves:                  0.000000
		Percentage of volume-change moves:                 0.000000
		Percentage of box-shape-change moves:              0.000000
		Percentage of Gibbs volume-change moves:           0.000000
		Percentage of framework-change moves:              0.000000
		Percentage of framework-shift moves:               0.000000
		Percentage of reactive MC moves:                   0.000000

	Moves are restricted: No
	No biased sampling used for this component

	Number of Bonds: 2
	--------------------------------------------
	Bond interaction 0: A=0 B=1 Type:RIGID_BOND
		r_0=1.1490000000       [A]
	Bond interaction 1: A=1 B=2 Type:RIGID_BOND
		r_0=1.1490000000       [A]


	number of identity changes: 2
	--------------------------------------------
	0 (CO2) to 0 (CO2)
	0 (CO2) to 1 (methane)

	number of identity-config changes: 1
	--------------------------------------------
	nr fixed 1: 0 

	Number of pockets blocked in a unitcell: 0
		Pockets are NOT blocked for this component

Component 1 [methane] (Adsorbate molecule)

	MoleculeDefinitions: ExampleDefinitions
	Component contains no atoms with charge
	Component contains no atoms with point dipoles (polarization)
	Component has a net charge of 0.000000

	Ideal chain Rosenbluth weight: 1
	Ideal chain total energy: 0.000000

	Critical temparure [K]: 190.564000
	Critical pressure [Pa]: 4599200.000000
	Acentric factor [-]: 0.011420

	RXMC partition factor ln(q/V) [ln(A^(-3))]:       0.0000000000

	Fluid is a vapour

	MolFraction:           0.7500000000 [-]
	Compressibility:       0.9714389725 [-]

	Density of the bulk fluid phase:       6.6206386115 [kg/m^3]

	Binary mixture EOS parameters:  (0): 0.000000 (1): 0.000000

	Amount of excess molecules:       2.6025572224 [-]

	Conversion factor molecules/unit cell -> mol/kg:       0.1623747175 [-]
	Conversion factor molecules/unit cell -> mg/g:       2.6048899107 [-]
	Conversion factor molecules/unit cell -> cm^3 STP/gr:       3.6394629804 [-]
	Conversion factor molecules/unit cell -> cm^3 STP/cm^3:       2.1592046669 [-]
	Conversion factor mol/kg -> cm^3 STP/gr:      22.4139757476 [-]
	Conversion factor mol/kg -> cm^3 STP/cm^3:      13.2976654244 [-]

	Partial pressure:    750000.00000000011642 [Pa]
	                       5625.00000000000091 [Torr]
	                          7.50000000000000 [bar]
	                          7.40192450037010 [atm]

	Fugacity coefficient:       0.9790119494 [-]

	Partial fugacity:    734258.96201743301935 [Pa]
	                       5506.94221513074717 [Torr]
	                          7.34258962017433 [bar]
	                          7.24657253409754 [atm]

	Molecule contains 1 number of atoms
		atom:    0  is of type:   16 [       CH4] (group: 0)

	Molecule contains 0 chirality centers

	Molecule contains 1 number of groups

		group: 0 containing: 1 elements
		-------------------------------------------------
		the group is modelled as flexible, i.e. no constraints
		Mass: 16.042460 [a.u.]
		Mass: 1.545418 [kg/m^3]

		Rotational Degrees of freedom: 0
		Diagonalized inertia vector:       0.0000000000
		                                   0.0000000000
		                                   0.0000000000
		element: 0 atom: 0 [       CH4] Charge:  0.000000 Anisotropy: 0.000000 Connectivity: 0 ()

		Dipole:           0.0000000000 [D]
		Quadrupole:       0.0000000000       0.0000000000       0.0000000000 [D Angstrom]
		Quadrupole tensor [D Angstrom]
				       0.0000000000       0.0000000000       0.0000000000
				       0.0000000000       0.0000000000       0.0000000000
				       0.0000000000       0.0000000000       0.0000000000

	Starting bead for growth               : 0

	Degrees of freedom                     : 0
	Translational degrees of freedom       : 0
	Rotational degrees of freedom          : 0
	Vibrational degrees of freedom         : 0
	Constraint degrees of freedom          : 0

	Number of atoms                        : 1

	Number of constraint bonds             : 0
	Number of constraint bends             : 0
	Number of constraint inversion bends   : 0
	Number of constraint torsions          : 0
	Number of constraint improper torsions : 0
	Number of constraint improper torsions : 0

	Number of bonds                        : 0
	Number of Urey-Bradleys                : 0
	Number of bends                        : 0
	Number of inversion bends              : 0
	Number of torsions                     : 0
	Number of improper torsions            : 0
	Number of improper torsions            : 0

	Number of bond/bond cross terms        : 0
	Number of bond/bend cross terms        : 0
	Number of bend/bend cross terms        : 0
	Number of stretch/torsion cross terms  : 0
	Number of bend/torsion cross terms     : 0

	Number of charges                      : 0
	Number of bond-dipoles                 : 0

	Number of intra Van der Waals                             : 0
	Number of intra charge-charge Coulomb                     : 0
	Number of intra charge-bonddipole Coulomb                 : 0
	Number of intra bonddipole-bonddipole Coulomb             : 0

	Number of excluded intra charge-charge Coulomb                     : 0
	Number of excluded intra charge-bonddipole Coulomb                 : 0
	Number of excluded intra bonddipole-bonddipole Coulomb             : 0

	Number of cbmc-config moves                               : 0

	Particle Moves:             
		ProbabilityTranslationMove:                  16.666667
			TranslationDirection:      XYZ
		Percentage of random translation moves:            0.000000
		Percentage of rotation moves:                      0.000000
		Percentage of random rotation moves:               0.000000
		Percentage of partial reinsertion moves:           0.000000
		Percentage of reinsertion moves:                   16.666667
		Percentage of reinsertion-in-place moves:          0.000000
		Percentage of reinsertion-in-plane moves:          0.000000
		Percentage of identity-change moves:               33.333333
			move 0    component 1 => 0
			move 1    component 1 => 1
		Percentage of swap (insert/delete) moves:          33.333333
		Percentage of CF swap lambda moves:                0.000000
		Percentage of CB/CFMC swap lambda moves:           0.000000
		Percentage of Widom insertion moves:               0.000000
		Percentage of CF-Widom insertion moves:            0.000000
		Percentage of Gibbs Widom insertion moves:         0.000000
		Percentage of surface-area moves:                  0.000000
		Percentage of Gibbs particle-transfer moves:       0.000000
		Percentage of Gibbs identity-change moves:         0.000000
		Percentage of CF Gibbs lambda-transfer moves:      0.000000
		Percentage of CB/CFMC Gibbs lambda-transfer moves: 0.000000
		Percentage of exchange frac./int. particle moves:  0.000000
		Percentage of fractional mol. to other box moves:  0.000000
		Percentage of lambda-change moves:                 0.000000
		Percentage of fractional to integer moves:         0.000000

	System Moves:
		Percentage of parallel-tempering moves:            0.000000
		Percentage of hyper-parallel-tempering moves:      0.000000
		Percentage of parallel-mol-fraction moves:         0.000000
			   Component A: 0 B: 1
		Percentage of chiral inversion moves:              0.000000
		Percentage of Hybrid-NVE moves:                    0.000000
		Percentage of Hybrid-NPH moves:                    0.000000
		Percentage of Hybrid-NPHPR moves:                  0.000000
		Percentage of volume-change moves:                 0.000000
		Percentage of box-shape-change moves:              0.000000
		Percentage of Gibbs volume-change moves:           0.000000
		Percentage of framework-change moves:              0.000000
		Percentage of framework-shift moves:               0.000000
		Percentage of reactive MC moves:                   0.000000

	Moves are restricted: No
	No biased sampling used for this component


	number of identity changes: 2
	--------------------------------------------
	1 (methane) to 0 (CO2)
	1 (methane) to 1 (methane)

	number of identity-config changes: 1
	--------------------------------------------
	nr fixed 1: 0 

	Number of pockets blocked in a unitcell: 0
		Pockets are NOT blocked for this component



Framework Status
===========================================================================
Lowenstein's rule obeyed by framework
	Framework is modelled as: rigid

	Number of charges:                               424
	Number of bonddipoles:                           0


System Properties
===========================================================================
Unit cell size: 25.832000 25.832000 25.832000
Cell angles (radians)  alpha: 1.570796 beta: 1.570796 gamma: 1.570796
Cell angles (degrees)  alpha: 90.000000 beta: 90.000000 gamma: 90.000000
Number of unitcells [a]: 1
Number of unitcells [b]: 1
Number of unitcells [c]: 1

TRICLINIC Boundary conditions: alpha!=90 or beta!=90 or gamma!=90

Cartesian axis A is collinear with crystallographic axis a
Cartesian axis B is collinear with (axb)xA
Cartesian axis C is collinear with (axb)

lengths of cell vectors:
 25.83200  25.83200  25.83200
cosines of cell angles:
  0.00000   0.00000   0.00000
perpendicular cell widths:
 25.83200  25.83200  25.83200
volume of the cell: 17237.492730368002 (A^3)

Orthogonalization matrix Box
Transforms fractional coordinates abc into orthonormal Cartesian coordinates xyz
Deorthogonalization matrix InverseBox
Transforms orthonormal Cartesian coordinates xyz into fractional coordinates xyz

Box[0]:
	   25.832000000000     0.000000000000     0.000000000000
	    0.000000000000    25.832000000000     0.000000000000
	    0.000000000000     0.000000000000    25.832000000000

Inverse box[0]:
	    0.038711675441    -0.000000000000    -0.000000000000
	    0.000000000000     0.038711675441    -0.000000000000
	    0.000000000000     0.000000000000     0.038711675441


Unitcell box[0]:
	   25.832000000000     0.000000000000     0.000000000000
	    0.000000000000    25.832000000000     0.000000000000
	    0.000000000000     0.000000000000    25.832000000000

Unitcell inverse box[0]:
	    0.038711675441    -0.000000000000    -0.000000000000
	    0.000000000000     0.038711675441    -0.000000000000
	    0.000000000000     0.000000000000     0.038711675441

lengths of cell vectors (inverse box):
  0.03871   0.03871   0.03871
cosines of cell angles (inverse box):
 -0.00000  -0.00000  -0.00000
perpendicular cell widths (inverse):
  0.03871   0.03871   0.03871
volume of the cell: 17237.492730368002 (A^3)

No replicas are used
Framework is simulated as 'rigid'
Number of framework atoms: 424
Number of framework atoms in the unit cell: 424
Framework Mass:  6158.594239999981 [g/mol]
Framework Density:   593.275622947865 [kg/m^3]    1.6855572036336 [cm^3/g]
Helium void fraction:    0.81000000
Available pore volume: 13962.36911160 [A^3]    1.36530133 [cm^3/g]
Conversion factor from molecule/unit cell -> kmol/m^3: 0.096333, kmol/m^3 accesible pore volume: 0.11893

Number Of Frameworks (per system): 1
----------------------------------------------------------------------
Framework name: IRMOF-1
Citation:
	author name:        'M. Eddaoudi, J. Kim, N. Rosi, D. Vodak, J. Wachter, M. O. Keeffe, and O.M. Yaghi'
	title:              'Systematic design of pore size and functionality in isoreticular MOFs and their application in methane storage'
	journal abbrev.:    'Science'
	journal volume:     295
	first page:         469
	last page:          472
	year:               2002
Space group: 225
	Identifier: 523
	short international Hermann-Mauguin symbol: F m -3 m
	long international Hermann-Mauguin symbol: F 4/m -3 2/m
	Hall symbol: -F 4 2 3
	Number of lattice translations: 4 [ (0,0,0) (0,0.5,0.5) (0.5,0,0.5) (0.5,0.5,0) ]
	acentric/centric: acentric
	chiral: yes
	enantiomorphic: no
	number of operators: 192
		'x,y,z'
		'-x,-y,z'
		'-x,y,-z'
		'x,-y,-z'
		'z,x,y'
		'z,-x,-y'
		'-z,-x,y'
		'-z,x,-y'
		'y,z,x'
		'-y,z,-x'
		'y,-z,-x'
		'-y,-z,x'
		'y,x,-z'
		'-y,-x,-z'
		'y,-x,z'
		'-y,x,z'
		'x,z,-y'
		'-x,z,y'
		'-x,-z,-y'
		'x,-z,y'
		'z,y,-x'
		'z,-y,x'
		'-z,y,x'
		'-z,-y,-x'
		'-x,-y,-z'
		'x,y,-z'
		'x,-y,z'
		'-x,y,z'
		'-z,-x,-y'
		'-z,x,y'
		'z,x,-y'
		'z,-x,y'
		'-y,-z,-x'
		'y,-z,x'
		'-y,z,x'
		'y,z,-x'
		'-y,-x,z'
		'y,x,z'
		'-y,x,-z'
		'y,-x,-z'
		'-x,-z,y'
		'x,-z,-y'
		'x,z,y'
		'-x,z,-y'
		'-z,-y,x'
		'-z,y,-x'
		'z,-y,-x'
		'z,y,x'
		'x,y+1/2,z+1/2'
		'-x,-y+1/2,z+1/2'
		'-x,y+1/2,-z+1/2'
		'x,-y+1/2,-z+1/2'
		'z,x+1/2,y+1/2'
		'z,-x+1/2,-y+1/2'
		'-z,-x+1/2,y+1/2'
		'-z,x+1/2,-y+1/2'
		'y,z+1/2,x+1/2'
		'-y,z+1/2,-x+1/2'
		'y,-z+1/2,-x+1/2'
		'-y,-z+1/2,x+1/2'
		'y,x+1/2,-z+1/2'
		'-y,-x+1/2,-z+1/2'
		'y,-x+1/2,z+1/2'
		'-y,x+1/2,z+1/2'
		'x,z+1/2,-y+1/2'
		'-x,z+1/2,y+1/2'
		'-x,-z+1/2,-y+1/2'
		'x,-z+1/2,y+1/2'
		'z,y+1/2,-x+1/2'
		'z,-y+1/2,x+1/2'
		'-z,y+1/2,x+1/2'
		'-z,-y+1/2,-x+1/2'
		'-x,-y+1/2,-z+1/2'
		'x,y+1/2,-z+1/2'
		'x,-y+1/2,z+1/2'
		'-x,y+1/2,z+1/2'
		'-z,-x+1/2,-y+1/2'
		'-z,x+1/2,y+1/2'
		'z,x+1/2,-y+1/2'
		'z,-x+1/2,y+1/2'
		'-y,-z+1/2,-x+1/2'
		'y,-z+1/2,x+1/2'
		'-y,z+1/2,x+1/2'
		'y,z+1/2,-x+1/2'
		'-y,-x+1/2,z+1/2'
		'y,x+1/2,z+1/2'
		'-y,x+1/2,-z+1/2'
		'y,-x+1/2,-z+1/2'
		'-x,-z+1/2,y+1/2'
		'x,-z+1/2,-y+1/2'
		'x,z+1/2,y+1/2'
		'-x,z+1/2,-y+1/2'
		'-z,-y+1/2,x+1/2'
		'-z,y+1/2,-x+1/2'
		'z,-y+1/2,-x+1/2'
		'z,y+1/2,x+1/2'
		'x+1/2,y,z+1/2'
		'-x+1/2,-y,z+1/2'
		'-x+1/2,y,-z+1/2'
		'x+1/2,-y,-z+1/2'
		'z+1/2,x,y+1/2'
		'z+1/2,-x,-y+1/2'
		'-z+1/2,-x,y+1/2'
		'-z+1/2,x,-y+1/2'
		'y+1/2,z,x+1/2'
		'-y+1/2,z,-x+1/2'
		'y+1/2,-z,-x+1/2'
		'-y+1/2,-z,x+1/2'
		'y+1/2,x,-z+1/2'
		'-y+1/2,-x,-z+1/2'
		'y+1/2,-x,z+1/2'
		'-y+1/2,x,z+1/2'
		'x+1/2,z,-y+1/2'
		'-x+1/2,z,y+1/2'
		'-x+1/2,-z,-y+1/2'
		'x+1/2,-z,y+1/2'
		'z+1/2,y,-x+1/2'
		'z+1/2,-y,x+1/2'
		'-z+1/2,y,x+1/2'
		'-z+1/2,-y,-x+1/2'
		'-x+1/2,-y,-z+1/2'
		'x+1/2,y,-z+1/2'
		'x+1/2,-y,z+1/2'
		'-x+1/2,y,z+1/2'
		'-z+1/2,-x,-y+1/2'
		'-z+1/2,x,y+1/2'
		'z+1/2,x,-y+1/2'
		'z+1/2,-x,y+1/2'
		'-y+1/2,-z,-x+1/2'
		'y+1/2,-z,x+1/2'
		'-y+1/2,z,x+1/2'
		'y+1/2,z,-x+1/2'
		'-y+1/2,-x,z+1/2'
		'y+1/2,x,z+1/2'
		'-y+1/2,x,-z+1/2'
		'y+1/2,-x,-z+1/2'
		'-x+1/2,-z,y+1/2'
		'x+1/2,-z,-y+1/2'
		'x+1/2,z,y+1/2'
		'-x+1/2,z,-y+1/2'
		'-z+1/2,-y,x+1/2'
		'-z+1/2,y,-x+1/2'
		'z+1/2,-y,-x+1/2'
		'z+1/2,y,x+1/2'
		'x+1/2,y+1/2,z'
		'-x+1/2,-y+1/2,z'
		'-x+1/2,y+1/2,-z'
		'x+1/2,-y+1/2,-z'
		'z+1/2,x+1/2,y'
		'z+1/2,-x+1/2,-y'
		'-z+1/2,-x+1/2,y'
		'-z+1/2,x+1/2,-y'
		'y+1/2,z+1/2,x'
		'-y+1/2,z+1/2,-x'
		'y+1/2,-z+1/2,-x'
		'-y+1/2,-z+1/2,x'
		'y+1/2,x+1/2,-z'
		'-y+1/2,-x+1/2,-z'
		'y+1/2,-x+1/2,z'
		'-y+1/2,x+1/2,z'
		'x+1/2,z+1/2,-y'
		'-x+1/2,z+1/2,y'
		'-x+1/2,-z+1/2,-y'
		'x+1/2,-z+1/2,y'
		'z+1/2,y+1/2,-x'
		'z+1/2,-y+1/2,x'
		'-z+1/2,y+1/2,x'
		'-z+1/2,-y+1/2,-x'
		'-x+1/2,-y+1/2,-z'
		'x+1/2,y+1/2,-z'
		'x+1/2,-y+1/2,z'
		'-x+1/2,y+1/2,z'
		'-z+1/2,-x+1/2,-y'
		'-z+1/2,x+1/2,y'
		'z+1/2,x+1/2,-y'
		'z+1/2,-x+1/2,y'
		'-y+1/2,-z+1/2,-x'
		'y+1/2,-z+1/2,x'
		'-y+1/2,z+1/2,x'
		'y+1/2,z+1/2,-x'
		'-y+1/2,-x+1/2,z'
		'y+1/2,x+1/2,z'
		'-y+1/2,x+1/2,-z'
		'y+1/2,-x+1/2,-z'
		'-x+1/2,-z+1/2,y'
		'x+1/2,-z+1/2,-y'
		'x+1/2,z+1/2,y'
		'-x+1/2,z+1/2,-y'
		'-z+1/2,-y+1/2,x'
		'-z+1/2,y+1/2,-x'
		'z+1/2,-y+1/2,-x'
		'z+1/2,y+1/2,x'
Framework is simulated as 'rigid'
Shift: 0.000000 0.000000 0.000000
Number of framework atoms: 424
Number of asymmetric atoms: 7
Number of free framework atoms: 0
Number of fixed framework atoms: 424
Number of framework atoms in the unit cell: 424
Framework Mass:  6158.594239999981 [g/mol]
Framework Density:   593.275622947865 [kg/m^3]
Framework has net charge: 0.000000
         largest charge : 1.275000
         smallest charge: -1.500000

Using FULL Host-guest interaction calculation (for testing purposes)

Current Atom Status
===========================================================================
Number of framework atoms        : 424
Number of cations molecules      : 0
Number of adsorbate molecules    : 0
Component    0 :    0 molecules
Component    1 :    0 molecules
Pseudo Atoms    0 [    UNIT]:    0 atoms
Pseudo Atoms    1 [     Zn1]:   32 atoms
Pseudo Atoms    2 [      O1]:    8 atoms
Pseudo Atoms    3 [      O2]:   96 atoms
Pseudo Atoms    4 [      C1]:   48 atoms
Pseudo Atoms    5 [      C2]:   48 atoms
Pseudo Atoms    6 [      C3]:   96 atoms
Pseudo Atoms    7 [      H1]:   96 atoms
Pseudo Atoms    8 [      He]:    0 atoms
Pseudo Atoms    9 [   C_co2]:    0 atoms
Pseudo Atoms   10 [   O_co2]:    0 atoms
Pseudo Atoms   11 [    O_o2]:    0 atoms
Pseudo Atoms   12 [   O_com]:    0 atoms
Pseudo Atoms   13 [    N_n2]:    0 atoms
Pseudo Atoms   14 [   N_com]:    0 atoms
Pseudo Atoms   15 [      Ar]:    0 atoms
Pseudo Atoms   16 [     CH4]:    0 atoms
Pseudo Atoms   17 [     CH3]:    0 atoms
Pseudo Atoms   18 [     CH2]:    0 atoms
Pseudo Atoms   19 [      CH]:    0 atoms
Pseudo Atoms   20 [       C]:    0 atoms


Current (initial full energy) Energy Status
===========================================================================

Internal energy:
Host stretch energy:                                            0.00000000
Host UreyBradley energy:                                        0.00000000
Host bend energy:                                               0.00000000
Host inversion-bend energy:                                     0.00000000
Host torsion energy:                                            0.00000000
Host improper torsion energy:                                   0.00000000
Host out-of-plane energy:                                       0.00000000
Host stretch/stretch energy:                                    0.00000000
Host bend/bend energy:                                          0.00000000
Host stretch/bend energy:                                       0.00000000
Host stretch/torsion energy:                                    0.00000000
Host bend/torsion energy:                                       0.00000000

Adsorbate stretch energy:                                       0.00000000
Adsorbate UreyBradley energy:                                   0.00000000
Adsorbate bend energy:                                          0.00000000
Adsorbate inversion-bend energy:                                0.00000000
Adsorbate torsion energy:                                       0.00000000
Adsorbate improper torsion energy:                              0.00000000
Adsorbate out-of-plane energy:                                  0.00000000
Adsorbate stretch/stretch energy:                               0.00000000
Adsorbate bend/bend energy:                                     0.00000000
Adsorbate stretch/bend energy:                                  0.00000000
Adsorbate stretch/torsion energy:                               0.00000000
Adsorbate bend/torsion energy:                                  0.00000000
Adsorbate intra VDW energy:                                     0.00000000
Adsorbate intra charge-charge Coulomb energy:                   0.00000000
Adsorbate intra charge-bonddipole Coulomb energy:               0.00000000
Adsorbate intra bonddipole-bonddipole Coulomb energy:           0.00000000

Cation stretch energy:                                          0.00000000
Cation UreyBradley energy:                                      0.00000000
Cation bend energy:                                             0.00000000
Cation inversion-bend energy:                                   0.00000000
Cation torsion energy:                                          0.00000000
Cation improper torsion energy:                                 0.00000000
Cation out-of-plane energy:                                     0.00000000
Cation stretch/stretch energy:                                  0.00000000
Cation bend/bend energy:                                        0.00000000
Cation stretch/bend energy:                                     0.00000000
Cation stretch/torsion energy:                                  0.00000000
Cation bend/torsion energy:                                     0.00000000
Cation intra VDW energy:                                        0.00000000
Cation intra charge-charge Coulomb energy:                      0.00000000
Cation intra charge-bonddipole Coulomb energy:                  0.00000000
Cation intra bonddipole-bonddipole Coulomb energy:              0.00000000

Host/Host energy:                                             0.00000000
	Host/Host VDW energy:                                         0.00000000
	Host/Host Coulomb energy:                                     0.00000000
	Host/Host charge-charge Real energy:                          0.00000000
	Host/Host charge-charge Fourier energy:                       0.00000000
	Host/Host charge-bonddipole Real energy:                      0.00000000
	Host/Host charge-bonddipole Fourier energy:                   0.00000000
	Host/Host bondipole-bonddipole Real energy:                   0.00000000
	Host/Host bondipole-bonddipole Fourier energy:                0.00000000

Host/Adsorbate energy:                                        0.00000000
	Host/Adsorbate VDW energy:                                    0.00000000
	Host/Adsorbate Coulomb energy:                                0.00000000
	Host/Adsorbate charge-charge Real energy:                     0.00000000
	Host/Adsorbate charge-charge Fourier energy:                  0.00000000
	Host/Adsorbate charge-bonddipole Real energy:                 0.00000000
	Host/Adsorbate charge-bonddipole Fourier energy:              0.00000000
	Host/Adsorbate bondipole-bonddipole Real energy:              0.00000000
	Host/Adsorbate bondipole-bonddipole Fourier energy:           0.00000000

Host/Cation energy:                                           0.00000000
	Host/Cation VDW energy:                                       0.00000000
	Host/Cation Coulomb energy:                                   0.00000000
	Host/Cation charge-charge Real energy:                        0.00000000
	Host/Cation charge-charge Fourier energy:                     0.00000000
	Host/Cation charge-bonddipole Real energy:                    0.00000000
	Host/Cation charge-bonddipole Fourier energy:                 0.00000000
	Host/Cation bondipole-bonddipole Real energy:                 0.00000000
	Host/Cation bondipole-bonddipole Fourier energy:              0.00000000

Adsorbate/Adsorbate energy:                                        0.00000000
	Adsorbate/Adsorbate VDW energy:                                    0.00000000
	Adsorbate/Adsorbate Coulomb energy:                                0.00000000
	Adsorbate/Adsorbate charge-charge Real energy:                     0.00000000
	Adsorbate/Adsorbate charge-charge Fourier energy:                  0.00000000
	Adsorbate/Adsorbate charge-bonddipole Real energy:                 0.00000000
	Adsorbate/Adsorbate charge-bonddipole Fourier energy:              0.00000000
	Adsorbate/Adsorbate bondipole-bonddipole Real energy:              0.00000000
	Adsorbate/Adsorbate bondipole-bonddipole Fourier energy:           0.00000000

Adsorbate/Cation energy:                                           0.00000000
	Adsorbate/Cation VDW energy:                                       0.00000000
	Adsorbate/Cation Coulomb energy:                                   0.00000000
	Adsorbate/Cation charge-charge Real energy:                        0.00000000
	Adsorbate/Cation charge-charge Fourier energy:                     0.00000000
	Adsorbate/Cation charge-bonddipole Real energy:                    0.00000000
	Adsorbate/Cation charge-bonddipole Fourier energy:                 0.00000000
	Adsorbate/Cation bondipole-bonddipole Real energy:                 0.00000000
	Adsorbate/Cation bondipole-bonddipole Fourier energy:              0.00000000

Cation/Cation energy:                                           0.00000000
	Cation/Cation VDW energy:                                       0.00000000
	Cation/Cation Coulomb energy:                                   0.00000000
	Cation/Cation charge-charge Real energy:                        0.00000000
	Cation/Cation charge-charge Fourier energy:                     0.00000000
	Cation/Cation charge-bonddipole Real energy:                    0.00000000
	Cation/Cation charge-bonddipole Fourier energy:                 0.00000000
	Cation/Cation bondipole-bonddipole Real energy:                 0.00000000
	Cation/Cation bondipole-bonddipole Fourier energy:              0.00000000

Polarization energy:
	Host polarization energy:                                     0.00000000
	Adsorbate polarization energy:                                0.00000000
	Cation polarization energy:                                   0.00000000
	Host back-polarization energy:                                     0.00000000
	Adsorbate back-polarization energy:                                0.00000000
	Cation back-polarization energy:                                   0.00000000

Tail-correction energy:                                       0.00000000

Distance constraints energy:                                  0.00000000
Angle constraints energy:                                     0.00000000
Dihedral constraints energy:                                  0.00000000
Inversion-bend constraints energy:                            0.00000000
Out-of-plane distance constraints energy:                     0.00000000
Exclusion constraints energy:                                 0.00000000

===================================================================
Total energy:     0.000000000000
	Total Van der Waals: 0.000000
	Total Coulomb: 0.000000

	Total Polarization: 0.000000







+++++++++++++++++++++++++++++++++++++++++++++++++++++++++++++++++++++++++
Starting simulation
+++++++++++++++++++++++++++++++++++++++++++++++++++++++++++++++++++++++++

[Init] Current cycle: 0 out of 10000
========================================================================================================

Net charge: 7.77156e-15 (F: 7.77156e-15, A: 0, C: 0)
Current Box:  25.83200   0.00000   0.00000 [A]
               0.00000  25.83200   0.00000 [A]
               0.00000   0.00000  25.83200 [A]
Box-lengths:  25.83200  25.83200  25.83200 Box-angles:   90.00000  90.00000  90.00000 [degrees]
Volume: 17237.49273 [A^3]

Loadings per component:
----------------------------------------------------------------------------------------------------------------------------------------------------
Component 0 (CO2), current number of integer/fractional/reaction molecules: 0/0/0, density:   0.00000 [kg/m^3]
	absolute adsorption:   0.00000 [mol/uc],         0.0000 [mol/kg],              0.0000 [mg/g]
	                                                 0.0000 [cm^3 STP/g],          0.0000 [cm^3 STP/cm^3]
	excess adsorption:    -0.86752 [mol/uc],        -0.1409 [mol/kg],             -6.1978 [mg/g]
	                                                -3.1573 [cm^3 STP/g],         -1.8732 [cm^3 STP/cm^3]
----------------------------------------------------------------------------------------------------------------------------------------------------
Component 1 (methane), current number of integer/fractional/reaction molecules: 0/0/0, density:   0.00000 [kg/m^3]
	absolute adsorption:   0.00000 [mol/uc],         0.0000 [mol/kg],              0.0000 [mg/g]
	                                                 0.0000 [cm^3 STP/g],          0.0000 [cm^3 STP/cm^3]
	excess adsorption:    -2.60256 [mol/uc],        -0.4226 [mol/kg],             -6.7794 [mg/g]
	                                                -9.4719 [cm^3 STP/g],         -5.6195 [cm^3 STP/cm^3]
----------------------------------------------------------------------------------------------------------------------------------------------------
Degrees of freedom: 0 0 0 0
Number of Framework-atoms:    424
Number of Adsorbates:           0 (0 integer, 0 fractional, 0 reaction)
Number of Cations:              0 (0 integer, 0 fractional, 0 reaction

Current total potential energy:                 0.0000000000 [K]
	Current Host-Host energy:                     0.0000000000 [K]
	Current Host-Adsorbate energy:                0.0000000000 [K]
	Current Host-Cation energy:                   0.0000000000 [K]
	Current Adsorbate-Adsorbate energy:           0.0000000000 [K]
	Current Cation-Cation energy:                 0.0000000000 [K]
	Current Adsorbate-Cation energy:              0.0000000000 [K]



[Init] Current cycle: 1000 out of 10000
========================================================================================================

Net charge: 7.77156e-15 (F: 7.77156e-15, A: 0, C: 0)
Current Box:  25.83200   0.00000   0.00000 [A]
               0.00000  25.83200   0.00000 [A]
               0.00000   0.00000  25.83200 [A]
Box-lengths:  25.83200  25.83200  25.83200 Box-angles:   90.00000  90.00000  90.00000 [degrees]
Volume: 17237.49273 [A^3]

Loadings per component:
----------------------------------------------------------------------------------------------------------------------------------------------------
Component 0 (CO2), current number of integer/fractional/reaction molecules: 9/0/0, density:  38.14685 [kg/m^3]
	absolute adsorption:   9.00000 [mol/uc],         1.4614 [mol/kg],             64.2986 [mg/g]
	                                                32.7552 [cm^3 STP/g],         19.4328 [cm^3 STP/cm^3]
	excess adsorption:     8.13248 [mol/uc],         1.3205 [mol/kg],             58.1008 [mg/g]
	                                                29.5979 [cm^3 STP/g],         17.5597 [cm^3 STP/cm^3]
----------------------------------------------------------------------------------------------------------------------------------------------------
Component 1 (methane), current number of integer/fractional/reaction molecules: 23/0/0, density:  35.54464 [kg/m^3]
	absolute adsorption:  23.00000 [mol/uc],         3.7346 [mol/kg],             59.9125 [mg/g]
	                                                83.7076 [cm^3 STP/g],         49.6617 [cm^3 STP/cm^3]
	excess adsorption:    20.39744 [mol/uc],         3.3120 [mol/kg],             53.1331 [mg/g]
	                                                74.2357 [cm^3 STP/g],         44.0423 [cm^3 STP/cm^3]
----------------------------------------------------------------------------------------------------------------------------------------------------
Degrees of freedom: 114 0 114 0
Number of Framework-atoms:    424
Number of Adsorbates:          32 (32 integer, 0 fractional, 0 reaction)
Number of Cations:              0 (0 integer, 0 fractional, 0 reaction

Current total potential energy:            -39119.2365288730 [K]
	Current Host-Host energy:                     0.0000000000 [K]
	Current Host-Adsorbate energy:           -36084.2682520937 [K]
	Current Host-Cation energy:                   0.0000000000 [K]
	Current Adsorbate-Adsorbate energy:       -3034.9682767793 [K]
	Current Cation-Cation energy:                 0.0000000000 [K]
	Current Adsorbate-Cation energy:              0.0000000000 [K]



[Init] Current cycle: 2000 out of 10000
========================================================================================================

Net charge: 7.77156e-15 (F: 7.77156e-15, A: 0, C: 0)
Current Box:  25.83200   0.00000   0.00000 [A]
               0.00000  25.83200   0.00000 [A]
               0.00000   0.00000  25.83200 [A]
Box-lengths:  25.83200  25.83200  25.83200 Box-angles:   90.00000  90.00000  90.00000 [degrees]
Volume: 17237.49273 [A^3]

Loadings per component:
----------------------------------------------------------------------------------------------------------------------------------------------------
Component 0 (CO2), current number of integer/fractional/reaction molecules: 12/0/0, density:  50.86246 [kg/m^3]
	absolute adsorption:  12.00000 [mol/uc],         1.9485 [mol/kg],             85.7315 [mg/g]
	                                                43.6736 [cm^3 STP/g],         25.9105 [cm^3 STP/cm^3]
	excess adsorption:    11.13248 [mol/uc],         1.8076 [mol/kg],             79.5337 [mg/g]
	                                                40.5163 [cm^3 STP/g],         24.0373 [cm^3 STP/cm^3]
----------------------------------------------------------------------------------------------------------------------------------------------------
Component 1 (methane), current number of integer/fractional/reaction molecules: 17/0/0, density:  26.27212 [kg/m^3]
	absolute adsorption:  17.00000 [mol/uc],         2.7604 [mol/kg],             44.2831 [mg/g]
	                                                61.8709 [cm^3 STP/g],         36.7065 [cm^3 STP/cm^3]
	excess adsorption:    14.39744 [mol/uc],         2.3378 [mol/kg],             37.5038 [mg/g]
	                                                52.3990 [cm^3 STP/g],         31.0870 [cm^3 STP/cm^3]
----------------------------------------------------------------------------------------------------------------------------------------------------
Degrees of freedom: 111 0 111 0
Number of Framework-atoms:    424
Number of Adsorbates:          29 (29 integer, 0 fractional, 0 reaction)
Number of Cations:              0 (0 integer, 0 fractional, 0 reaction

Current total potential energy:            -35893.4943746278 [K]
	Current Host-Host energy:                     0.0000000000 [K]
	Current Host-Adsorbate energy:           -32709.4360539748 [K]
	Current Host-Cation energy:                   0.0000000000 [K]
	Current Adsorbate-Adsorbate energy:       -3184.0583206530 [K]
	Current Cation-Cation energy:                 0.0000000000 [K]
	Current Adsorbate-Cation energy:              0.0000000000 [K]



[Init] Current cycle: 3000 out of 10000
========================================================================================================

Net charge: 7.77156e-15 (F: 7.77156e-15, A: 0, C: 0)
Current Box:  25.83200   0.00000   0.00000 [A]
               0.00000  25.83200   0.00000 [A]
               0.00000   0.00000  25.83200 [A]
Box-lengths:  25.83200  25.83200  25.83200 Box-angles:   90.00000  90.00000  90.00000 [degrees]
Volume: 17237.49273 [A^3]

Loadings per component:
[...]
	Block[ 0]            0.00000 [K]
	Block[ 1]            0.00000 [K]
	Block[ 2]            0.00000 [K]
	Block[ 3]            0.00000 [K]
	Block[ 4]            0.00000 [K]
	------------------------------------------------------------------------------
	Average              0.00000 [K] +/-            0.00000 [K]

Average Cation Intra charge-bonddipole Coulomb energy:
====================================
	Block[ 0]            0.00000 [K]
	Block[ 1]            0.00000 [K]
	Block[ 2]            0.00000 [K]
	Block[ 3]            0.00000 [K]
	Block[ 4]            0.00000 [K]
	------------------------------------------------------------------------------
	Average              0.00000 [K] +/-            0.00000 [K]

Average Cation Intra bonddipole-bonddipole Coulomb energy:
====================================
	Block[ 0]            0.00000 [K]
	Block[ 1]            0.00000 [K]
	Block[ 2]            0.00000 [K]
	Block[ 3]            0.00000 [K]
	Block[ 4]            0.00000 [K]
	------------------------------------------------------------------------------
	Average              0.00000 [K] +/-            0.00000 [K]

Average Host-Host energy:
=========================
	Block[ 0] 0.00000            Van der Waals: 0.00000            Coulomb: 0.00000            [K]
	Block[ 1] 0.00000            Van der Waals: 0.00000            Coulomb: 0.00000            [K]
	Block[ 2] 0.00000            Van der Waals: 0.00000            Coulomb: 0.00000            [K]
	Block[ 3] 0.00000            Van der Waals: 0.00000            Coulomb: 0.00000            [K]
	Block[ 4] 0.00000            Van der Waals: 0.00000            Coulomb: 0.00000            [K]
	------------------------------------------------------------------------------
	Average   0.00000            Van der Waals: 0.000000           Coulomb: 0.00000            [K]
	      +/- 0.00000                       +/- 0.000000                +/- 0.00000            [K]

Average Adsorbate-Adsorbate energy:
===================================
	Block[ 0] -4579.16910        Van der Waals: -4326.64391        Coulomb: -252.52519         [K]
	Block[ 1] -4618.95806        Van der Waals: -4361.60461        Coulomb: -257.35345         [K]
	Block[ 2] -4685.13994        Van der Waals: -4428.31856        Coulomb: -256.82138         [K]
	Block[ 3] -4571.34101        Van der Waals: -4316.57334        Coulomb: -254.76767         [K]
	Block[ 4] -4562.20473        Van der Waals: -4314.23214        Coulomb: -247.97260         [K]
	------------------------------------------------------------------------------
	Average   -4603.36257        Van der Waals: -4349.474513       Coulomb: -253.88806         [K]
	      +/- 62.79969                      +/- 59.568562               +/- 4.73701            [K]

Average Cation-Cation energy:
=============================
	Block[ 0] 0.00000            Van der Waals: 0.00000            Coulomb: 0.00000            [K]
	Block[ 1] 0.00000            Van der Waals: 0.00000            Coulomb: 0.00000            [K]
	Block[ 2] 0.00000            Van der Waals: 0.00000            Coulomb: 0.00000            [K]
	Block[ 3] 0.00000            Van der Waals: 0.00000            Coulomb: 0.00000            [K]
	Block[ 4] 0.00000            Van der Waals: 0.00000            Coulomb: 0.00000            [K]
	------------------------------------------------------------------------------
	Average   0.00000            Van der Waals: 0.000000           Coulomb: 0.00000            [K]
	      +/- 0.00000                       +/- 0.000000                +/- 0.00000            [K]

Average Host-Adsorbate energy:
==============================
	Block[ 0] -38345.94243       Van der Waals: -37225.18831       Coulomb: -1120.75412        [K]
	Block[ 1] -38341.95438       Van der Waals: -37284.28865       Coulomb: -1057.66573        [K]
	Block[ 2] -38621.08627       Van der Waals: -37558.54685       Coulomb: -1062.53942        [K]
	Block[ 3] -38186.24365       Van der Waals: -37095.02427       Coulomb: -1091.21938        [K]
	Block[ 4] -38108.81249       Van der Waals: -37060.57498       Coulomb: -1048.23751        [K]
	------------------------------------------------------------------------------
	Average   -38320.80784       Van der Waals: -37244.724610      Coulomb: -1076.08323        [K]
	      +/- 243.82669                     +/- 245.760409              +/- 36.84148           [K]

Average Host-Cation energy:
===========================
	Block[ 0] 0.00000            Van der Waals: 0.00000            Coulomb: 0.00000            [K]
	Block[ 1] 0.00000            Van der Waals: 0.00000            Coulomb: 0.00000            [K]
	Block[ 2] 0.00000            Van der Waals: 0.00000            Coulomb: 0.00000            [K]
	Block[ 3] 0.00000            Van der Waals: 0.00000            Coulomb: 0.00000            [K]
	Block[ 4] 0.00000            Van der Waals: 0.00000            Coulomb: 0.00000            [K]
	------------------------------------------------------------------------------
	Average   0.00000            Van der Waals: 0.000000           Coulomb: 0.00000            [K]
	      +/- 0.00000                       +/- 0.000000                +/- 0.00000            [K]

Average Adsorbate-Cation energy:
================================
	Block[ 0] 0.00000            Van der Waals: 0.00000            Coulomb: 0.00000            [K]
	Block[ 1] 0.00000            Van der Waals: 0.00000            Coulomb: 0.00000            [K]
	Block[ 2] 0.00000            Van der Waals: 0.00000            Coulomb: 0.00000            [K]
	Block[ 3] 0.00000            Van der Waals: 0.00000            Coulomb: 0.00000            [K]
	Block[ 4] 0.00000            Van der Waals: 0.00000            Coulomb: 0.00000            [K]
	------------------------------------------------------------------------------
	Average   0.00000            Van der Waals: 0.000000           Coulomb: 0.00000            [K]
	      +/- 0.00000                       +/- 0.000000                +/- 0.00000            [K]

Host polarization energy:
=======================
	Block[ 0]            0.00000 [K]
	Block[ 1]            0.00000 [K]
	Block[ 2]            0.00000 [K]
	Block[ 3]            0.00000 [K]
	Block[ 4]            0.00000 [K]
	------------------------------------------------------------------------------
	Average              0.00000 [K] +/-            0.00000 [K]

Adsorbate polarization energy:
=======================
	Block[ 0]            0.00000 [K]
	Block[ 1]            0.00000 [K]
	Block[ 2]            0.00000 [K]
	Block[ 3]            0.00000 [K]
	Block[ 4]            0.00000 [K]
	------------------------------------------------------------------------------
	Average              0.00000 [K] +/-            0.00000 [K]

Cation polarization energy:
=======================
	Block[ 0]            0.00000 [K]
	Block[ 1]            0.00000 [K]
	Block[ 2]            0.00000 [K]
	Block[ 3]            0.00000 [K]
	Block[ 4]            0.00000 [K]
	------------------------------------------------------------------------------
	Average              0.00000 [K] +/-            0.00000 [K]

Host back-polarization energy:
=======================
	Block[ 0]            0.00000 [K]
	Block[ 1]            0.00000 [K]
	Block[ 2]            0.00000 [K]
	Block[ 3]            0.00000 [K]
	Block[ 4]            0.00000 [K]
	------------------------------------------------------------------------------
	Average              0.00000 [K] +/-            0.00000 [K]

Adsorbate back-polarization energy:
=======================
	Block[ 0]            0.00000 [K]
	Block[ 1]            0.00000 [K]
	Block[ 2]            0.00000 [K]
	Block[ 3]            0.00000 [K]
	Block[ 4]            0.00000 [K]
	------------------------------------------------------------------------------
	Average              0.00000 [K] +/-            0.00000 [K]

Cation back-polarization energy:
=======================
	Block[ 0]            0.00000 [K]
	Block[ 1]            0.00000 [K]
	Block[ 2]            0.00000 [K]
	Block[ 3]            0.00000 [K]
	Block[ 4]            0.00000 [K]
	------------------------------------------------------------------------------
	Average              0.00000 [K] +/-            0.00000 [K]

Tail-correction energy:
=======================
	Block[ 0]            0.00000 [K]
	Block[ 1]            0.00000 [K]
	Block[ 2]            0.00000 [K]
	Block[ 3]            0.00000 [K]
	Block[ 4]            0.00000 [K]
	------------------------------------------------------------------------------
	Average              0.00000 [K] +/-            0.00000 [K]

Distance-constraints energy:
=======================
	Block[ 0]            0.00000 [K]
	Block[ 1]            0.00000 [K]
	Block[ 2]            0.00000 [K]
	Block[ 3]            0.00000 [K]
	Block[ 4]            0.00000 [K]
	------------------------------------------------------------------------------
	Average              0.00000 [K] +/-            0.00000 [K]

Angle-constraints energy:
=======================
	Block[ 0]            0.00000 [K]
	Block[ 1]            0.00000 [K]
	Block[ 2]            0.00000 [K]
	Block[ 3]            0.00000 [K]
	Block[ 4]            0.00000 [K]
	------------------------------------------------------------------------------
	Average              0.00000 [K] +/-            0.00000 [K]

Dihedral-constraints energy:
=======================
	Block[ 0]            0.00000 [K]
	Block[ 1]            0.00000 [K]
	Block[ 2]            0.00000 [K]
	Block[ 3]            0.00000 [K]
	Block[ 4]            0.00000 [K]
	------------------------------------------------------------------------------
	Average              0.00000 [K] +/-            0.00000 [K]

Inversion-bend constraints energy:
=======================
	Block[ 0]            0.00000 [K]
	Block[ 1]            0.00000 [K]
	Block[ 2]            0.00000 [K]
	Block[ 3]            0.00000 [K]
	Block[ 4]            0.00000 [K]
	------------------------------------------------------------------------------
	Average              0.00000 [K] +/-            0.00000 [K]

Out-of-plane-distance constraints energy:
=======================
	Block[ 0]            0.00000 [K]
	Block[ 1]            0.00000 [K]
	Block[ 2]            0.00000 [K]
	Block[ 3]            0.00000 [K]
	Block[ 4]            0.00000 [K]
	------------------------------------------------------------------------------
	Average              0.00000 [K] +/-            0.00000 [K]

Exclusion-constraints energy:
=======================
	Block[ 0]            0.00000 [K]
	Block[ 1]            0.00000 [K]
	Block[ 2]            0.00000 [K]
	Block[ 3]            0.00000 [K]
	Block[ 4]            0.00000 [K]
	------------------------------------------------------------------------------
	Average              0.00000 [K] +/-            0.00000 [K]

Total energy:
=============
	Block[ 0]       -42925.11153 [K]
	Block[ 1]       -42960.91244 [K]
	Block[ 2]       -43306.22621 [K]
	Block[ 3]       -42757.58466 [K]
	Block[ 4]       -42671.01722 [K]
	------------------------------------------------------------------------------
	Average         -42924.17041 [K] +/-          303.55966 [K]

Number of molecules:
====================

Component 0 [CO2]
-------------------------------------------------------------
	Block[ 0] 14.98680           [-]
	Block[ 1] 14.91280           [-]
	Block[ 2] 15.16230           [-]
	Block[ 3] 14.95220           [-]
	Block[ 4] 14.89510           [-]
	------------------------------------------------------------------------------
	Average loading absolute                             14.9818400000 +/-       0.1327835001 [-]
	Average loading absolute [molecules/unit cell]       14.9818400000 +/-       0.1327835001 [-]
	Average loading absolute [mol/kg framework]                  2.4326720378 +/-       0.0215606833 [-]
	Average loading absolute [milligram/gram framework]        107.0346504582 +/-       0.9486441930 [-]
	Average loading absolute [cm^3 (STP)/gr framework]          54.5258520578 +/-       0.4832606329 [-]
	Average loading absolute [cm^3 (STP)/cm^3 framework]        32.3488588464 +/-       0.2867067530 [-]

	Block[ 0] 14.11928           [-]
	Block[ 1] 14.04528           [-]
	Block[ 2] 14.29478           [-]
	Block[ 3] 14.08468           [-]
	Block[ 4] 14.02758           [-]
	------------------------------------------------------------------------------
	Average loading excess                             14.1143209259 +/-       0.1327835001 [-]
	Average loading excess [molecules/unit cell]       14.1143209259 +/-       0.1327835001 [-]
	Average loading excess [mol/kg framework]                    2.2918088732 +/-       0.0215606833 [-]
	Average loading excess [milligram/gram framework]          100.8368402515 +/-       0.9486441930 [-]
	Average loading excess [cm^3 (STP)/gr framework]            51.3685485027 +/-       0.4832606329 [-]
	Average loading excess [cm^3 (STP)/cm^3 framework]          30.4757076129 +/-       0.2867067530 [-]

Component 1 [methane]
-------------------------------------------------------------
	Block[ 0] 19.54180           [-]
	Block[ 1] 19.78000           [-]
	Block[ 2] 19.77410           [-]
	Block[ 3] 19.46900           [-]
	Block[ 4] 19.55980           [-]
	------------------------------------------------------------------------------
	Average loading absolute                             19.6249400000 +/-       0.1774959204 [-]
	Average loading absolute [molecules/unit cell]       19.6249400000 +/-       0.1774959204 [-]
	Average loading absolute [mol/kg framework]                  3.1865940887 +/-       0.0288208499 [-]
	Average loading absolute [milligram/gram framework]         51.1208082045 +/-       0.4623573324 [-]
	Average loading absolute [cm^3 (STP)/gr framework]          71.4242426220 +/-       0.6459898316 [-]
	Average loading absolute [cm^3 (STP)/cm^3 framework]        42.3742620351 +/-       0.3832500198 [-]

	Block[ 0] 16.93924           [-]
	Block[ 1] 17.17744           [-]
	Block[ 2] 17.17154           [-]
	Block[ 3] 16.86644           [-]
	Block[ 4] 16.95724           [-]
	------------------------------------------------------------------------------
	Average loading excess                             17.0223827776 +/-       0.1774959204 [-]
	Average loading excess [molecules/unit cell]       17.0223827776 +/-       0.1774959204 [-]
	Average loading excess [mol/kg framework]                    2.7640045949 +/-       0.0288208499 [-]
	Average loading excess [milligram/gram framework]           44.3414331537 +/-       0.4623573324 [-]
	Average loading excess [cm^3 (STP)/gr framework]            61.9523319566 +/-       0.6459898316 [-]
	Average loading excess [cm^3 (STP)/cm^3 framework]          36.7548083346 +/-       0.3832500198 [-]


Average Widom Rosenbluth factor:
================================
	Block[ 0] 0 [-]
	Block[ 1] 0 [-]
	Block[ 2] 0 [-]
	Block[ 3] 0 [-]
	Block[ 4] 0 [-]
	------------------------------------------------------------------------------
	[CO2] Average Widom Rosenbluth-weight:   0 +/- 0.000000 [-]
	Block[ 0] 0 [-]
	Block[ 1] 0 [-]
	Block[ 2] 0 [-]
	Block[ 3] 0 [-]
	Block[ 4] 0 [-]
	------------------------------------------------------------------------------
	[methane] Average Widom Rosenbluth-weight:   0 +/- 0.000000 [-]

Average Widom chemical potential:
=================================
	Block[ 0] 0 [-]
	Block[ 1] 0 [-]
	Block[ 2] 0 [-]
	Block[ 3] 0 [-]
	Block[ 4] 0 [-]
	------------------------------------------------------------------------------
	[CO2] Average chemical potential:   0 +/- 0.000000 [K]
	Block[ 0] 0 [-]
	Block[ 1] 0 [-]
	Block[ 2] 0 [-]
	Block[ 3] 0 [-]
	Block[ 4] 0 [-]
	------------------------------------------------------------------------------
	[methane] Average chemical potential:   0 +/- 0.000000 [K]

Average Widom Ideal-gas contribution:
=====================================
	Block[ 0] 0 [-]
	Block[ 1] 0 [-]
	Block[ 2] 0 [-]
	Block[ 3] 0 [-]
	Block[ 4] 0 [-]
	------------------------------------------------------------------------------
	[CO2] Average Widom Ideal-gas chemical potential:   0 +/- 0.000000 [-]
	Block[ 0] 0 [-]
	Block[ 1] 0 [-]
	Block[ 2] 0 [-]
	Block[ 3] 0 [-]
	Block[ 4] 0 [-]
	------------------------------------------------------------------------------
	[methane] Average Widom Ideal-gas chemical potential:   0 +/- 0.000000 [-]

Average Widom excess contribution:
==================================
	Block[ 0] 0 [-]
	Block[ 1] 0 [-]
	Block[ 2] 0 [-]
	Block[ 3] 0 [-]
	Block[ 4] 0 [-]
	------------------------------------------------------------------------------
	[CO2] Average Widom excess chemical potential:   0 +/- 0.000000 [-]
	Block[ 0] 0 [-]
	Block[ 1] 0 [-]
	Block[ 2] 0 [-]
	Block[ 3] 0 [-]
	Block[ 4] 0 [-]
	------------------------------------------------------------------------------
	[methane] Average Widom excess chemical potential:   0 +/- 0.000000 [-]

Average Gibbs Widom Rosenbluth factor:
======================================
	Block[ 0] 0 [-]
	Block[ 1] 0 [-]
	Block[ 2] 0 [-]
	Block[ 3] 0 [-]
	Block[ 4] 0 [-]
	------------------------------------------------------------------------------
	[CO2] Average Gibbs Widom Rosenbluth-weight:   0 +/- 0.000000 [-]
	Block[ 0] 0 [-]
	Block[ 1] 0 [-]
	Block[ 2] 0 [-]
	Block[ 3] 0 [-]
	Block[ 4] 0 [-]
	------------------------------------------------------------------------------
	[methane] Average Gibbs Widom Rosenbluth-weight:   0 +/- 0.000000 [-]

Average Gibbs Widom chemical potential:
=======================================
	Block[ 0] 0 [-]
	Block[ 1] 0 [-]
	Block[ 2] 0 [-]
	Block[ 3] 0 [-]
	Block[ 4] 0 [-]
	------------------------------------------------------------------------------
	[CO2] Average Gibbs chemical potential:   0 +/- 0.000000 [K]
	Block[ 0] 0 [-]
	Block[ 1] 0 [-]
	Block[ 2] 0 [-]
	Block[ 3] 0 [-]
	Block[ 4] 0 [-]
	------------------------------------------------------------------------------
	[methane] Average Gibbs chemical potential:   0 +/- 0.000000 [K]

Average Gibbs Widom Ideal-gas contribution:
===========================================
	Block[ 0] 0 [-]
	Block[ 1] 0 [-]
	Block[ 2] 0 [-]
	Block[ 3] 0 [-]
	Block[ 4] 0 [-]
	------------------------------------------------------------------------------
	[CO2] Average Gibbs Ideal-gas chemical potential:   0 +/- 0.000000 [-]
	Block[ 0] 0 [-]
	Block[ 1] 0 [-]
	Block[ 2] 0 [-]
	Block[ 3] 0 [-]
	Block[ 4] 0 [-]
	------------------------------------------------------------------------------
	[methane] Average Gibbs Ideal-gas chemical potential:   0 +/- 0.000000 [-]

Average Gibbs Widom excess contribution:
===========================================
	Block[ 0] 0 [-]
	Block[ 1] 0 [-]
	Block[ 2] 0 [-]
	Block[ 3] 0 [-]
	Block[ 4] 0 [-]
	------------------------------------------------------------------------------
	[CO2] Average Gibbs excess chemical potential:   0 +/- 0.000000 [-]
	Block[ 0] 0 [-]
	Block[ 1] 0 [-]
	Block[ 2] 0 [-]
	Block[ 3] 0 [-]
	Block[ 4] 0 [-]
	------------------------------------------------------------------------------
	[methane] Average Gibbs excess chemical potential:   0 +/- 0.000000 [-]

Average Henry coefficient:
==========================
	Block[ 0] 0 [mol/kg/Pa]
	Block[ 1] 0 [mol/kg/Pa]
	Block[ 2] 0 [mol/kg/Pa]
	Block[ 3] 0 [mol/kg/Pa]
	Block[ 4] 0 [mol/kg/Pa]
	------------------------------------------------------------------------------
	[CO2] Average Henry coefficient:  0 +/- 0 [mol/kg/Pa]
	Block[ 0] 0 [mol/kg/Pa]
	Block[ 1] 0 [mol/kg/Pa]
	Block[ 2] 0 [mol/kg/Pa]
	Block[ 3] 0 [mol/kg/Pa]
	Block[ 4] 0 [mol/kg/Pa]
	------------------------------------------------------------------------------
	[methane] Average Henry coefficient:  0 +/- 0 [mol/kg/Pa]

Average adsorption energy <U_gh>_1-<U_h>_0 obtained from Widom-insertion:
(Note: the total heat of adsorption is dH=<U_gh>_1-<U_h>_0 - <U_g> - RT)
=========================================================================

Simulation finished,  0 warnings


Tue May 18 15:11:05 2021
Simulation finished on Tuesday, May 18.
The end time was 03:11 PM.

