# vtk DataFile Version 1.0
Cube
ASCII

DATASET POLYDATA
POINTS 142 float
-1.546486 2.683419 1.572123
11.723514 2.683419 1.572123
-1.575812 4.878421 3.762500
-1.963296 4.014210 2.423050
0.000664 2.249015 1.902320
0.000000 2.891427 9.540195
3.500626 0.000000 0.000000
3.500626 0.000000 15.050000
-3.134374 11.492157 0.000000
-3.134374 11.492157 15.050000
0.000664 5.269154 3.762500
0.000000 10.579680 3.762500
10.172848 0.002413 9.097123
3.537848 11.494570 9.097123
8.257257 1.074517 11.287500
8.811943 0.306841 9.948050
11.322627 1.125082 9.427320
10.765951 1.445713 2.015195
1.750313 3.031631 7.525000
8.707110 2.635152 11.287500
4.107729 5.289840 11.287500
5.084334 8.811152 1.572123
3.198070 7.688253 3.762500
4.140240 7.784787 2.423050
4.686964 10.368224 1.902320
4.130951 10.046444 9.540195
-1.750313 3.031631 0.000000
-1.750313 3.031631 15.050000
11.519687 3.031631 0.000000
11.519687 3.031631 15.050000
2.071447 8.858155 3.762500
-2.527271 6.202317 3.762500
-5.088514 8.808738 9.097123
8.181486 8.808738 9.097123
8.210812 6.613736 11.287500
8.598297 7.477947 9.948050
6.634337 9.243142 9.427320
6.635000 8.600730 2.015195
9.769374 0.000000 7.525000
3.134374 11.492157 7.525000
6.634336 6.223003 11.287500
6.635000 0.912477 11.287500
3.097152 -0.002413 1.572123
-3.537848 11.489744 1.572123
-1.622257 10.417640 3.762500
-2.176943 11.185317 2.423050
-4.687627 10.367075 1.902320
-4.130951 10.046444 9.540195
4.884687 8.460526 0.000000
4.884687 8.460526 15.050000
-2.072110 8.857005 3.762500
2.527271 6.202317 3.762500
1.550666 2.681005 9.097123
3.436930 3.803904 11.287500
2.494760 3.707370 9.948050
1.948036 1.123933 9.427320
2.504049 1.445713 2.015195
-4.884687 8.460526 7.525000
8.385313 8.460526 7.525000
4.563553 2.634002 11.287500
9.162271 5.289840 11.287500
10.172848 -0.002413 5.952877
3.537848 11.489744 5.952877
1.622258 10.417640 3.762500
2.176944 11.185317 5.101950
4.687628 10.367075 5.622680
4.130951 10.046444 13.034805
5.088514 8.808738 13.477877
5.059188 6.613736 11.287500
4.671704 7.477947 12.626950
6.635664 9.243142 13.147680
6.635000 8.600730 5.509805
-5.084334 8.811152 5.952877
8.185666 8.811152 5.952877
-3.198070 7.688253 3.762500
-4.140240 7.784787 5.101950
-4.686964 10.368224 5.622680
-4.130951 10.046444 13.034805
3.097152 0.002413 13.477877
-3.537848 11.494570 13.477877
5.012743 1.074517 11.287500
4.458056 0.306841 12.626950
1.947373 1.125082 13.147680
2.504049 1.445713 5.509805
1.546486 2.683419 5.952877
1.575813 4.878421 3.762500
1.963297 4.014210 5.101950
-0.000663 2.249015 5.622680
0.000000 2.891427 13.034805
-1.550666 2.681005 13.477877
11.719334 2.681005 13.477877
9.833070 3.803904 11.287500
10.775240 3.707370 12.626950
11.321964 1.123933 13.147680
10.765951 1.445713 5.509805
-5.088514 8.808738 13.477877
8.181486 8.808738 13.477877
8.598297 7.477947 12.626950
9.769374 0.000000 0.000000
9.769374 0.000000 15.050000
3.134374 11.492157 0.000000
3.134374 11.492157 15.050000
3.097152 -0.002413 5.952877
-3.537848 11.489744 5.952877
-2.176943 11.185317 5.101950
4.884687 8.460526 7.525000
1.550666 2.681005 13.477877
2.494760 3.707370 12.626950
-4.884687 8.460526 0.000000
-4.884687 8.460526 15.050000
8.385313 8.460526 0.000000
8.385313 8.460526 15.050000
-1.546486 2.683419 5.952877
11.723514 2.683419 5.952877
-1.963296 4.014210 5.101950
3.500626 0.000000 7.525000
-3.134374 11.492157 7.525000
10.172848 0.002413 13.477877
3.537848 11.494570 13.477877
8.811943 0.306841 12.626950
1.750313 3.031631 0.000000
1.750313 3.031631 15.050000
5.084334 8.811152 5.952877
4.140240 7.784787 5.101950
-1.750313 3.031631 7.525000
11.519687 3.031631 7.525000
3.097152 0.002413 9.097123
-3.537848 11.494570 9.097123
4.458056 0.306841 9.948050
1.546486 2.683419 1.572123
1.963297 4.014210 2.423050
-1.550666 2.681005 9.097123
11.719334 2.681005 9.097123
10.775240 3.707370 9.948050
10.172848 -0.002413 1.572123
3.537848 11.489744 1.572123
2.176944 11.185317 2.423050
5.088514 8.808738 9.097123
4.671704 7.477947 9.948050
-5.084334 8.811152 1.572123
8.185666 8.811152 1.572123
-4.140240 7.784787 2.423050
LINES 160 480
2 0 3
2 0 4
2 0 26
2 1 17
2 1 28
2 2 3
2 2 10
2 2 31
2 2 114
2 4 129
2 5 52
2 5 131
2 6 42
2 7 78
2 8 43
2 9 79
2 10 85
2 11 44
2 11 63
2 12 15
2 12 16
2 12 38
2 13 25
2 13 39
2 14 15
2 14 19
2 14 41
2 14 119
2 16 132
2 17 134
2 18 52
2 18 84
2 19 91
2 20 53
2 20 68
2 21 23
2 21 24
2 21 37
2 21 48
2 22 23
2 22 30
2 22 51
2 22 123
2 24 135
2 25 137
2 27 89
2 29 90
2 30 63
2 31 74
2 32 47
2 32 57
2 33 35
2 33 36
2 33 58
2 34 35
2 34 40
2 34 60
2 34 97
2 36 137
2 37 140
2 38 61
2 39 62
2 40 68
2 41 80
2 42 56
2 43 45
2 43 46
2 44 45
2 44 50
2 44 104
2 46 139
2 47 127
2 49 67
2 50 74
2 51 85
2 52 54
2 52 55
2 53 54
2 53 59
2 53 107
2 55 126
2 56 129
2 57 72
2 58 73
2 59 80
2 60 91
2 61 94
2 62 64
2 62 65
2 63 64
2 63 136
2 65 122
2 66 67
2 66 118
2 67 69
2 67 70
2 68 69
2 68 138
2 70 96
2 71 73
2 71 122
2 72 75
2 72 76
2 74 75
2 74 141
2 76 103
2 77 79
2 77 95
2 78 81
2 78 82
2 80 81
2 80 128
2 82 106
2 83 84
2 83 102
2 84 86
2 84 87
2 85 86
2 85 130
2 87 112
2 88 89
2 88 106
2 90 92
2 90 93
2 91 92
2 91 133
2 93 117
2 94 113
2 95 109
2 96 97
2 96 111
2 98 134
2 99 117
2 100 135
2 101 118
2 102 115
2 103 104
2 103 116
2 105 122
2 105 137
2 106 107
2 106 121
2 108 139
2 110 140
2 112 114
2 112 124
2 113 125
2 115 126
2 116 127
2 117 119
2 120 129
2 122 123
2 124 131
2 125 132
2 126 128
2 129 130
2 132 133
2 135 136
2 137 138
2 139 141
POINT_DATA 142
SCALARS my_scalars float
LOOKUP_TABLE default
2.1
2.1
2.1
1.52
1.52
1.52
1.52
1.52
1.52
1.52
1.52
1.52
2.1
2.1
2.1
1.52
1.52
1.52
1.52
1.52
1.52
2.1
2.1
1.52
1.52
1.52
1.52
1.52
1.52
1.52
1.52
1.52
2.1
2.1
2.1
1.52
1.52
1.52
1.52
1.52
1.52
1.52
2.1
2.1
2.1
1.52
1.52
1.52
1.52
1.52
1.52
1.52
2.1
2.1
1.52
1.52
1.52
1.52
1.52
1.52
1.52
2.1
2.1
2.1
1.52
1.52
1.52
2.1
2.1
1.52
1.52
1.52
2.1
2.1
2.1
1.52
1.52
1.52
2.1
2.1
2.1
1.52
1.52
1.52
2.1
2.1
1.52
1.52
1.52
2.1
2.1
2.1
1.52
1.52
1.52
2.1
2.1
1.52
1.52
1.52
1.52
1.52
2.1
2.1
1.52
1.52
2.1
1.52
1.52
1.52
1.52
1.52
2.1
2.1
1.52
1.52
1.52
2.1
2.1
1.52
1.52
1.52
2.1
1.52
1.52
1.52
2.1
2.1
1.52
2.1
1.52
2.1
2.1
1.52
2.1
2.1
1.52
2.1
1.52
2.1
2.1
1.52
VECTORS vectors float
0.125 0 0
0.125 0 0
0.125 0 0
0.03125 0 0
0.03125 0 0
0.03125 0 0
0.03125 0 0
0.03125 0 0
0.03125 0 0
0.03125 0 0
0.03125 0 0
0.03125 0 0
0.125 0 0
0.125 0 0
0.125 0 0
0.03125 0 0
0.03125 0 0
0.03125 0 0
0.03125 0 0
0.03125 0 0
0.03125 0 0
0.125 0 0
0.125 0 0
0.03125 0 0
0.03125 0 0
0.03125 0 0
0.03125 0 0
0.03125 0 0
0.03125 0 0
0.03125 0 0
0.03125 0 0
0.03125 0 0
0.125 0 0
0.125 0 0
0.125 0 0
0.03125 0 0
0.03125 0 0
0.03125 0 0
0.03125 0 0
0.03125 0 0
0.03125 0 0
0.03125 0 0
0.125 0 0
0.125 0 0
0.125 0 0
0.03125 0 0
0.03125 0 0
0.03125 0 0
0.03125 0 0
0.03125 0 0
0.03125 0 0
0.03125 0 0
0.125 0 0
0.125 0 0
0.03125 0 0
0.03125 0 0
0.03125 0 0
0.03125 0 0
0.03125 0 0
0.03125 0 0
0.03125 0 0
0.125 0 0
0.125 0 0
0.125 0 0
0.03125 0 0
0.03125 0 0
0.03125 0 0
0.125 0 0
0.125 0 0
0.03125 0 0
0.03125 0 0
0.03125 0 0
0.125 0 0
0.125 0 0
0.125 0 0
0.03125 0 0
0.03125 0 0
0.03125 0 0
0.125 0 0
0.125 0 0
0.125 0 0
0.03125 0 0
0.03125 0 0
0.03125 0 0
0.125 0 0
0.125 0 0
0.03125 0 0
0.03125 0 0
0.03125 0 0
0.125 0 0
0.125 0 0
0.125 0 0
0.03125 0 0
0.03125 0 0
0.03125 0 0
0.125 0 0
0.125 0 0
0.03125 0 0
0.03125 0 0
0.03125 0 0
0.03125 0 0
0.03125 0 0
0.125 0 0
0.125 0 0
0.03125 0 0
0.03125 0 0
0.125 0 0
0.03125 0 0
0.03125 0 0
0.03125 0 0
0.03125 0 0
0.03125 0 0
0.125 0 0
0.125 0 0
0.03125 0 0
0.03125 0 0
0.03125 0 0
0.125 0 0
0.125 0 0
0.03125 0 0
0.03125 0 0
0.03125 0 0
0.125 0 0
0.03125 0 0
0.03125 0 0
0.03125 0 0
0.125 0 0
0.125 0 0
0.03125 0 0
0.125 0 0
0.03125 0 0
0.125 0 0
0.125 0 0
0.03125 0 0
0.125 0 0
0.125 0 0
0.03125 0 0
0.125 0 0
0.03125 0 0
0.125 0 0
0.125 0 0
0.03125 0 0
