Compiler and run-time data
===========================================================================
RASPA 2.0.45
Compiled as a 64-bits application
Compiler: gcc Apple LLVM 12.0.5 (clang-1205.0.22.9)
Compile Date = May 18 2021, Compile Time = 12:54:12

Wed May 19 11:36:33 2021
Simulation started on Wednesday, May 19.
The start time was 11:36 AM.

Cpu data:    x86_64
Cpu Model:   MacPro7,1
Host name:   MacPro.local
OS release:  20.4.0
OS type:     Darwin
OS version:  20E232


Simulation
===========================================================================
Dimensions: 3
Random number seed: 1621416993
RASPA directory set to: /Users/dubbelda/RASPA/simulations/
String appended to output-files: 
Number of cycles: 25000
Number of initializing cycles: 0
Number of equilibration cycles: 25000
Print every: 5000
Rectangular boundary condition applied
Timestep: 0.000500
	Degrees of freedom:                        3660
	Translational Degrees of freedom:          3660
	Rotational Degrees of freedom:             0
	Degrees of freedom Framework:              0


Mutual consistent basic set of units:
======================================
Unit of temperature: Kelvin
Unit of length:      1e-10 [m]
Unit of time:        1e-12 [s]
Unit of mass:        1.66054e-27 [kg]
Unit of charge:      1.60218e-19 [C/particle]

Derived units and their conversion factors:
===========================================
Unit of energy:              1.66054e-23 [J]
Unit of force:               1.66054e-13 [N]
Unit of pressure:            1.66054e+07 [Pa]
Unit of velocity:            100 [m/s]
Unit of acceleration:        1e-08 [m^2/s]
Unit of diffusion:           1e-08 [m^2/s]
Unit of dipole moment:       1.60218e-29 [C.m]
Unit of electric potential:  0.000103643 [V]
Unit of electric field:      1.03643e+06 [V]
Unit of polarizability:      1.54587e-35 [-]
Unit of Coulomb potential:   167101.0800066561  [K]
Unit of dielectric constant: 0.0000154587       [s^2 C^2/(kg m^3)]
Unit of wave vectors:        5.3088374589       [cm^1]
Boltzmann constant:          0.8314464919       [-]

Internal conversion factors:
===========================================
Energy to Kelvin:                                    1.2027242847
FH correction factor                                 2.0211930949
Heat capacity conversion factor:                    10.0000088723
From Debye to internal units:                        4.8032067991
Isothermal compressibility conversion factor:        0.0000000602

Energy conversion factors:
===========================================
From mdyne/A to kcal/mol/A^2:           143.933
From mdyne/A to kj/mol/A^2:             602.214
From mdyne/A to K/A^2:                  72429.7
From mdyne A/rad^2 to kcal/mol/deg^2:   0.0438444


Properties computed
===========================================================================
Movies: no
Radial Distribution Function: no
Number of molecules GCMC histogram: yes
	Number of molecules histograms are written to file every 5000 cycles
	Size of the number-of-molecule histogram: 1000
	Range of the number-of-molecule histogram: 500.000000
Histogram of the molecule positions: no
Free energy profiles: no
Pore Size Distribution Function: no
End-to-end distance: no
Histogram of the energy of the system: no
Compute thermodynamic factors: no
Framework spacing histograms: no
Residence times histograms: no
Distance histograms: no
Bend Angle histograms: no
Dihedral angle histograms: no
Angle between planes histograms: no
Molecule properties: no
Infra-red spectra: no
Mean-squared displacement using modified order-N algorithm: no
Velocity-autocorrelation function modified order-N algorithm: no
Rotational velocity-autocorrelation function modified order-N algorithm: no
Molecular orientation-autocorrelation function modified order-N algorithm: no
Bond orientation-autocorrelation function modified order-N algorithm: no
Mean-squared displacement (conventional algorithm): no
Velocity-autocorrelation function (conventional algorithm): no
3D density grid for adsorbates: no
Compute cation an/or adsorption sites: no
dcTST snapshots: no
Compute pressure and stress: no


VTK
===========================================================================
VTK fractional-range position framework atoms: [-0.001000,1.001000] [-0.001000,1.001000] [-0.001000,1.001000]
VTK fractional-range position framework bonds: [-0.151000,1.151000] [-0.151000,1.151000] [-0.151000,1.151000]
VTK fractional-range com-position adsorbate molecules: [-0.101000,1.101000] [-0.101000,1.101000] [-0.101000,1.101000]
VTK fractional-range com-position cation molecules: [-0.101000,1.101000] [-0.101000,1.101000] [-0.101000,1.101000]
	3D free energy grid made for the full simulation-cell


Thermo/Baro-stat NHC parameters
===========================================================================
External temperature: 450 [K]
Beta: 0.00267272 [energy unit]
External Pressure: 101300 [Pa]


Thermostat chain-length: 3
Timescale parameter for thermostat: 0.150000 [ps]
Barostat chain-length:   3
Timescale parameter for barostat:   0.150000 [ps]

Number of Yoshida-Suzuki decomposition steps: 5
Number of respa steps: 5


Method and settings for electrostatics
===============================================================================
Dielectric constant of the medium : 1.000000
Charge from charge-equilibration: no
No electrostatics


CFC-RXMC parameters
===========================================================================
Number of reactions: 2
	Reaction [0]: 2 0 0 0 --> 0 1 0 1
	Reaction [1]: 0 0 0 1 --> 0 0 1 0


Rattle parameters
===========================================================================
Distance constraint type: r^2-r^2_0
Bend angle constraint type: theta-theta_0
Dihedral angle constraint type: phi-phi_0
Inversion-bend angle constraint type: chi-chi_0
Out-of-plane distance constraint type: r-r_0


Spectra parameters
===========================================================================
Compute normal modes: no


Minimization parameters
===========================================================================
Generalized coordinates are: Cartesian center-of-mass, elements of the orientational matrix p1,p2,p3 and strain
Potential derivatives are evaluated: analytically
Translation of the system is removed from the generalized Hessian: no
Rotation of the system is removed from the generalized Hessian: no
Maximum step-length: 0.3
Convergence factor: 1
Maximum number of minimization steps: 10000
Use gradients in the line-minimizations: yes
RMS gradient tolerance: 1e-06
Maximum gradient tolerance: 1e-06

Distance constraints: 0
Angle constraints: 0
Dihedral constraints: 0

Improper dihedral constraints: 0

Inversion-bend constraints: 0

Out-of-plane constraints: 0

Harmonic distance constraints: 0
Harmonic angle constraints: 0
Harmonic dihedral constraints: 0

Dihedral mid-point measurements: 0

All framework atoms are fixed

Fixed adsorbate atoms:  
Fixed adsorbate groups (center-of-mass):  
Fixed adsorbate groups (orientation):  

Fixed cation atoms:  
Fixed cation groups (center-of-mass):  
Fixed cation groups (orientation):  


dcTST parameters
===========================================================================
Free energy profiles computed: no
Free energy profiles written every 5000 cycles
Free energy mapping: mapped to a,b,c-coordinates
BarrierPosition:       0.0000000000       0.0000000000       0.0000000000
BarrierNormal:         0.0000000000       0.0000000000       0.0000000000
Start with a molecule on top of the barrier: no
Maximum distance to barrier (e.g. distance to minumum free energy):       0.0000000000 [A]
Maximum trajectory time:      10.0000000000 [ps]
Each configuration is used with 5 different initial velocities


Cbmc parameters
===========================================================================
Biasing method: using only the VDW part
Number of trial positions:                                       10
Number of trial positions (reinsertion):                         10
Number of trial positions (partial reinsertion):                 10
Number of trial positions (identity-change):                     10
Number of trial positions (Gibbs particle transfer):             10
Number of trial positions (insertion/deletion):                  10
Number of trial positions (Widom insertion):                     10
Number of trial positions coupled Torsion-selection:             100
Number of trial positions first bead:                            10
Number of trial positions first bead (reinsertion):              10
Number of trial positions first bead (partial reinsertion):      10
Number of trial positions first bead (identity-change):          10
Number of trial positions first bead (Gibbs particle transfer):  10
Number of trial positions first bead (insertion/deletion):       10
Number of trial positions first bead (Widom insertion):          10
Number of trial moves per open bead:                             150
Target acceptance ratio small-mc scheme:                         0.400000
Energy overlap criteria:                                         1e+07
Minimal Rosenbluth factor:                                       1e-150


Pseudo atoms: 4
===========================================================================
Pseudo Atom[   0] Name UNIT     Oxidation:          Element: H    pdb-name: H    Scat. Types:   1   1 Mass=1.000000000  B-factor:0.000   
                 Charge=1.000000000          Polarization=0.000000000  [A^3] (considered a charged atom and no polarization)  Interactions: yes
                 Anisotropic factor:    0.000 [-] (Absolute), Radius:    1.000 [A], Framework-atom:  no
Pseudo Atom[   1] Name CH3_sp3  Oxidation: +0       Element: C    pdb-name: C    Scat. Types:   7   6 Mass=15.034520000 B-factor:1.000   
                 Charge=0.000000000          Polarization=0.000000000  [A^3] (considered a chargeless atom and no polarization)  Interactions: yes
                 Anisotropic factor:    0.000 [-] (Absolute), Radius:    1.000 [A], Framework-atom:  no
Pseudo Atom[   2] Name CH2_sp2  Oxidation: +0       Element: C    pdb-name: C    Scat. Types:   7   6 Mass=14.026580000 B-factor:1.000   
                 Charge=0.000000000          Polarization=0.000000000  [A^3] (considered a chargeless atom and no polarization)  Interactions: yes
                 Anisotropic factor:    0.000 [-] (Absolute), Radius:    1.000 [A], Framework-atom:  no
Pseudo Atom[   3] Name CH_sp2   Oxidation: +0       Element: C    pdb-name: C    Scat. Types:   7   6 Mass=13.018640000 B-factor:1.000   
                 Charge=0.000000000          Polarization=0.000000000  [A^3] (considered a chargeless atom and no polarization)  Interactions: yes
                 Anisotropic factor:    0.000 [-] (Absolute), Radius:    1.000 [A], Framework-atom:  no


Forcefield: local
===========================================================================
Minimal distance: 1
CutOff VDW : 14.000000 (196.000000)
CutOff VDW switching on: 12.600000 (158.760000)
CutOff charge-charge : 12.000000 (144.000000)
CutOff charge-charge switching on: 7.800000 (60.840000)
CutOff charge-bonddipole : 12.000000 (144.000000)
CutOff charge-bondipole switching on: 8.400000 (70.560000)
CutOff bonddipole-bonddipole : 12.000000 (144.000000)
CutOff bonddipole-bondipole switching on: 9.000000 (81.000000)
Polarization is neglected
TailCorrections are used
All potentials are unshifted !!!!!!

General mixing rule: Lorentz-Berthelot mixing rules are used FIRST for cross terms
0 cross terms are overwritten using the individual mixing rules from the file 'force_field_mixing_rules.def'
and then 0 terms are overwritten using the specific interactions from the file 'force_field.def'

The force field and all the interactions:
CH3_sp3 - CH3_sp3 [LENNARD_JONES_CONTINUOUS_FRACTIONAL] p_0/k_B:  98.00000 [K], p_1: 3.75000 [A], shift/k_B:   0.00000000 [K], tailcorrection: yes
CH3_sp3 - CH2_sp2 [LENNARD_JONES_CONTINUOUS_FRACTIONAL] p_0/k_B:  91.26883 [K], p_1: 3.71250 [A], shift/k_B:   0.00000000 [K], tailcorrection: yes
CH3_sp3 -  CH_sp2 [LENNARD_JONES_CONTINUOUS_FRACTIONAL] p_0/k_B:  67.86752 [K], p_1: 3.74000 [A], shift/k_B:   0.00000000 [K], tailcorrection: yes
CH2_sp2 - CH2_sp2 [LENNARD_JONES_CONTINUOUS_FRACTIONAL] p_0/k_B:  85.00000 [K], p_1: 3.67500 [A], shift/k_B:   0.00000000 [K], tailcorrection: yes
CH2_sp2 -  CH_sp2 [LENNARD_JONES_CONTINUOUS_FRACTIONAL] p_0/k_B:  63.20601 [K], p_1: 3.70250 [A], shift/k_B:   0.00000000 [K], tailcorrection: yes
 CH_sp2 -  CH_sp2 [LENNARD_JONES_CONTINUOUS_FRACTIONAL] p_0/k_B:  47.00000 [K], p_1: 3.73000 [A], shift/k_B:   0.00000000 [K], tailcorrection: yes


MoleculeDefinitions:
===========================================================================
Component 0 [propene] (Adsorbate molecule)

	MoleculeDefinitions: Local
	Component contains no atoms with charge
	Component contains no atoms with point dipoles (polarization)
	Component has a net charge of 0.000000

	Ideal chain Rosenbluth weight: 1
	Ideal chain total energy: 0.000000

	Critical temparure [K]: 365.570000
	Critical pressure [Pa]: 4664600.000000
	Acentric factor [-]: 0.140800

	RXMC partition factor ln(q/V) [ln(A^(-3))]:      87.1384000000

	Vapour=stable, Liquid=metastable

	MolFraction:           1.0000000000 [-]
	Compressibility:       0.0000000000 [-]

	Density of the bulk fluid phase:       0.0000000000 [kg/m^3]


	Amount of excess molecules:       0.0000000000 [-]

	Conversion factor molecules/unit cell -> mol/kg:                inf [-]
	Conversion factor molecules/unit cell -> mg/g:                inf [-]
	Conversion factor molecules/unit cell -> cm^3 STP/gr:                inf [-]
	Conversion factor molecules/unit cell -> cm^3 STP/cm^3:       0.0110279333 [-]
	Conversion factor mol/kg -> cm^3 STP/gr:      22.4139757476 [-]
	Conversion factor mol/kg -> cm^3 STP/cm^3:       0.0000000000 [-]

	Partial pressure: -16605402.00000000000000 [Pa]
	                    -124540.51499999999942 [Torr]
	                       -166.05402000000001 [bar]
	                       -163.88257586972614 [atm]

	Fugacity coefficient:      -1.0000000000 [-]

	Partial fugacity:  16605402.00000000000000 [Pa]
	                     124540.51499999999942 [Torr]
	                        166.05402000000001 [bar]
	                        163.88257586972614 [atm]

	Molecule contains 3 number of atoms
		atom:    0  is of type:    2 [   CH2_sp2] (group: 0)
		atom:    1  is of type:    3 [    CH_sp2] (group: 0)
		atom:    2  is of type:    1 [   CH3_sp3] (group: 0)

	Molecule contains 0 chirality centers

	Molecule contains 1 number of groups

		group: 0 containing: 3 elements
		-------------------------------------------------
		the group is modelled as flexible, i.e. no constraints
		Mass: 42.079740 [a.u.]
		Mass: 0.020704 [kg/m^3]

		Rotational Degrees of freedom: 0
		Diagonalized inertia vector:       0.0000000000
		                                   0.0000000000
		                                   0.0000000000
		element: 0 atom: 0 [   CH2_sp2] Charge:  0.000000 Anisotropy: 0.000000 Connectivity: 1 (1 )
		element: 1 atom: 1 [    CH_sp2] Charge:  0.000000 Anisotropy: 0.000000 Connectivity: 2 (0 2 )
		element: 2 atom: 2 [   CH3_sp3] Charge:  0.000000 Anisotropy: 0.000000 Connectivity: 1 (1 )

		Dipole:           0.0000000000 [D]
		Quadrupole:       0.0000000000       0.0000000000       0.0000000000 [D Angstrom]
		Quadrupole tensor [D Angstrom]
				       0.0000000000       0.0000000000       0.0000000000
				       0.0000000000       0.0000000000       0.0000000000
				       0.0000000000       0.0000000000       0.0000000000

	Starting bead for growth               : 0

	Degrees of freedom                     : 0
	Translational degrees of freedom       : 0
	Rotational degrees of freedom          : 0
	Vibrational degrees of freedom         : 0
	Constraint degrees of freedom          : 0

	Number of atoms                        : 3

	Number of constraint bonds             : 0
	Number of constraint bends             : 0
	Number of constraint inversion bends   : 0
	Number of constraint torsions          : 0
	Number of constraint improper torsions : 0
	Number of constraint improper torsions : 0

	Number of bonds                        : 2
	Number of Urey-Bradleys                : 0
	Number of bends                        : 1
	Number of inversion bends              : 0
	Number of torsions                     : 0
	Number of improper torsions            : 0
	Number of improper torsions            : 0

	Number of bond/bond cross terms        : 0
	Number of bond/bend cross terms        : 0
	Number of bend/bend cross terms        : 0
	Number of stretch/torsion cross terms  : 0
	Number of bend/torsion cross terms     : 0

	Number of charges                      : 0
	Number of bond-dipoles                 : 0

	Number of intra Van der Waals                             : 0
	Number of intra charge-charge Coulomb                     : 0
	Number of intra charge-bonddipole Coulomb                 : 0
	Number of intra bonddipole-bonddipole Coulomb             : 0

	Number of excluded intra charge-charge Coulomb                     : 0
	Number of excluded intra charge-bonddipole Coulomb                 : 0
	Number of excluded intra bonddipole-bonddipole Coulomb             : 0

	Number of cbmc-config moves                               : 0

	Particle Moves:             
		ProbabilityTranslationMove:                  35.000000
			TranslationDirection:      XYZ
		Percentage of random translation moves:            0.000000
		Percentage of rotation moves:                      53.900000
		Percentage of random rotation moves:               0.000000
		Percentage of partial reinsertion moves:           0.000000
		Percentage of reinsertion moves:                   10.000000
		Percentage of reinsertion-in-place moves:          0.000000
		Percentage of reinsertion-in-plane moves:          0.000000
		Percentage of identity-change moves:               0.000000
		Percentage of swap (insert/delete) moves:          0.000000
		Percentage of CF swap lambda moves:                0.000000
		Percentage of CB/CFMC swap lambda moves:           0.000000
		Percentage of Widom insertion moves:               0.000000
		Percentage of CF-Widom insertion moves:            0.000000
		Percentage of Gibbs Widom insertion moves:         0.000000
		Percentage of surface-area moves:                  0.000000
		Percentage of Gibbs particle-transfer moves:       0.000000
		Percentage of Gibbs identity-change moves:         0.000000
		Percentage of CF Gibbs lambda-transfer moves:      0.000000
		Percentage of CB/CFMC Gibbs lambda-transfer moves: 0.000000
		Percentage of exchange frac./int. particle moves:  0.000000
		Percentage of fractional mol. to other box moves:  0.000000
		Percentage of lambda-change moves:                 0.000000
		Percentage of fractional to integer moves:         0.000000

	System Moves:
		Percentage of parallel-tempering moves:            0.000000
		Percentage of hyper-parallel-tempering moves:      0.000000
		Percentage of parallel-mol-fraction moves:         0.000000
			   Component A: 0 B: 1
		Percentage of chiral inversion moves:              0.000000
		Percentage of Hybrid-NVE moves:                    0.000000
		Percentage of Hybrid-NPH moves:                    0.000000
		Percentage of Hybrid-NPHPR moves:                  0.000000
		Percentage of volume-change moves:                 0.100000
		Percentage of box-shape-change moves:              0.000000
		Percentage of Gibbs volume-change moves:           0.000000
		Percentage of framework-change moves:              0.000000
		Percentage of framework-shift moves:               0.000000
		Percentage of reactive MC moves:                   1.000000

	Moves are restricted: No
	No biased sampling used for this component

	Number of Bonds: 2
	--------------------------------------------
	Bond interaction 0: A=0 B=1 Type:HARMONIC_BOND
		HARMONIC_BOND: p_0/k_B=96500.000000 [K/A^2], p_1=1.330000   [A]
	Bond interaction 1: A=1 B=2 Type:HARMONIC_BOND
		HARMONIC_BOND: p_0/k_B=96500.000000 [K/A^2], p_1=1.540000   [A]

	Number of Bends: 1
	--------------------------------------------
	Bend interaction 0: A=0 B=1 C=2 Type:HARMONIC_BEND
		HARMONIC_BEND: p_0/k_B=70420.000000 [K/rad^2], p_1=119.700000 [degrees]


	number of identity-config changes: 1
	--------------------------------------------
	nr fixed 1: 0 

	Number of pockets blocked in a unitcell: 0
		Pockets are NOT blocked for this component

Component 1 [ethene] (Adsorbate molecule)

	MoleculeDefinitions: Local
	Component contains no atoms with charge
	Component contains no atoms with point dipoles (polarization)
	Component has a net charge of 0.000000

	Ideal chain Rosenbluth weight: 1
	Ideal chain total energy: 0.000000

	Critical temparure [K]: 282.350000
	Critical pressure [Pa]: 5041800.000000
	Acentric factor [-]: 0.086600

	RXMC partition factor ln(q/V) [ln(A^(-3))]:      82.0298000000

	Vapour=stable, Liquid=metastable

	MolFraction:           1.0000000000 [-]
	Compressibility:       0.0000000000 [-]

	Density of the bulk fluid phase:       0.0000000000 [kg/m^3]


	Amount of excess molecules:       0.0000000000 [-]

	Conversion factor molecules/unit cell -> mol/kg:                inf [-]
	Conversion factor molecules/unit cell -> mg/g:                inf [-]
	Conversion factor molecules/unit cell -> cm^3 STP/gr:                inf [-]
	Conversion factor molecules/unit cell -> cm^3 STP/cm^3:       0.0110279333 [-]
	Conversion factor mol/kg -> cm^3 STP/gr:      22.4139757476 [-]
	Conversion factor mol/kg -> cm^3 STP/cm^3:       0.0000000000 [-]

	Partial pressure: -16605402.00000000000000 [Pa]
	                    -124540.51499999999942 [Torr]
	                       -166.05402000000001 [bar]
	                       -163.88257586972614 [atm]

	Fugacity coefficient:      -1.0000000000 [-]

	Partial fugacity:  16605402.00000000000000 [Pa]
	                     124540.51499999999942 [Torr]
	                        166.05402000000001 [bar]
	                        163.88257586972614 [atm]

	Molecule contains 2 number of atoms
		atom:    0  is of type:    2 [   CH2_sp2] (group: 0)
		atom:    1  is of type:    2 [   CH2_sp2] (group: 0)

	Molecule contains 0 chirality centers

	Molecule contains 1 number of groups

		group: 0 containing: 2 elements
		-------------------------------------------------
		the group is modelled as flexible, i.e. no constraints
		Mass: 28.053160 [a.u.]
		Mass: 0.013802 [kg/m^3]

		Rotational Degrees of freedom: 0
		Diagonalized inertia vector:       0.0000000000
		                                   0.0000000000
		                                   0.0000000000
		element: 0 atom: 0 [   CH2_sp2] Charge:  0.000000 Anisotropy: 0.000000 Connectivity: 1 (1 )
		element: 1 atom: 1 [   CH2_sp2] Charge:  0.000000 Anisotropy: 0.000000 Connectivity: 1 (0 )

		Dipole:           0.0000000000 [D]
		Quadrupole:       0.0000000000       0.0000000000       0.0000000000 [D Angstrom]
		Quadrupole tensor [D Angstrom]
				       0.0000000000       0.0000000000       0.0000000000
				       0.0000000000       0.0000000000       0.0000000000
				       0.0000000000       0.0000000000       0.0000000000

	Starting bead for growth               : 0

	Degrees of freedom                     : 0
	Translational degrees of freedom       : 0
	Rotational degrees of freedom          : 0
	Vibrational degrees of freedom         : 0
	Constraint degrees of freedom          : 0

	Number of atoms                        : 2

	Number of constraint bonds             : 0
	Number of constraint bends             : 0
	Number of constraint inversion bends   : 0
	Number of constraint torsions          : 0
	Number of constraint improper torsions : 0
	Number of constraint improper torsions : 0

	Number of bonds                        : 1
	Number of Urey-Bradleys                : 0
	Number of bends                        : 0
	Number of inversion bends              : 0
	Number of torsions                     : 0
	Number of improper torsions            : 0
	Number of improper torsions            : 0

	Number of bond/bond cross terms        : 0
	Number of bond/bend cross terms        : 0
	Number of bend/bend cross terms        : 0
	Number of stretch/torsion cross terms  : 0
	Number of bend/torsion cross terms     : 0

	Number of charges                      : 0
	Number of bond-dipoles                 : 0

	Number of intra Van der Waals                             : 0
	Number of intra charge-charge Coulomb                     : 0
	Number of intra charge-bonddipole Coulomb                 : 0
	Number of intra bonddipole-bonddipole Coulomb             : 0

	Number of excluded intra charge-charge Coulomb                     : 0
	Number of excluded intra charge-bonddipole Coulomb                 : 0
	Number of excluded intra bonddipole-bonddipole Coulomb             : 0

	Number of cbmc-config moves                               : 0

	Particle Moves:             
		ProbabilityTranslationMove:                  35.000000
			TranslationDirection:      XYZ
		Percentage of random translation moves:            0.000000
		Percentage of rotation moves:                      53.900000
		Percentage of random rotation moves:               0.000000
		Percentage of partial reinsertion moves:           0.000000
		Percentage of reinsertion moves:                   10.000000
		Percentage of reinsertion-in-place moves:          0.000000
		Percentage of reinsertion-in-plane moves:          0.000000
		Percentage of identity-change moves:               0.000000
		Percentage of swap (insert/delete) moves:          0.000000
		Percentage of CF swap lambda moves:                0.000000
		Percentage of CB/CFMC swap lambda moves:           0.000000
		Percentage of Widom insertion moves:               0.000000
		Percentage of CF-Widom insertion moves:            0.000000
		Percentage of Gibbs Widom insertion moves:         0.000000
		Percentage of surface-area moves:                  0.000000
		Percentage of Gibbs particle-transfer moves:       0.000000
		Percentage of Gibbs identity-change moves:         0.000000
		Percentage of CF Gibbs lambda-transfer moves:      0.000000
		Percentage of CB/CFMC Gibbs lambda-transfer moves: 0.000000
		Percentage of exchange frac./int. particle moves:  0.000000
		Percentage of fractional mol. to other box moves:  0.000000
		Percentage of lambda-change moves:                 0.000000
		Percentage of fractional to integer moves:         0.000000

	System Moves:
		Percentage of parallel-tempering moves:            0.000000
		Percentage of hyper-parallel-tempering moves:      0.000000
		Percentage of parallel-mol-fraction moves:         0.000000
			   Component A: 0 B: 1
		Percentage of chiral inversion moves:              0.000000
		Percentage of Hybrid-NVE moves:                    0.000000
		Percentage of Hybrid-NPH moves:                    0.000000
		Percentage of Hybrid-NPHPR moves:                  0.000000
		Percentage of volume-change moves:                 0.100000
		Percentage of box-shape-change moves:              0.000000
		Percentage of Gibbs volume-change moves:           0.000000
		Percentage of framework-change moves:              0.000000
		Percentage of framework-shift moves:               0.000000
		Percentage of reactive MC moves:                   1.000000

	Moves are restricted: No
	No biased sampling used for this component

	Number of Bonds: 1
	--------------------------------------------
	Bond interaction 0: A=0 B=1 Type:HARMONIC_BOND
		HARMONIC_BOND: p_0/k_B=96500.000000 [K/A^2], p_1=1.330000   [A]


	number of identity-config changes: 1
	--------------------------------------------
	nr fixed 1: 0 

	Number of pockets blocked in a unitcell: 0
		Pockets are NOT blocked for this component

Component 2 [cis-2-butene] (Adsorbate molecule)

	MoleculeDefinitions: Local
	Component contains no atoms with charge
	Component contains no atoms with point dipoles (polarization)
	Component has a net charge of 0.000000

	Ideal chain Rosenbluth weight: 1
	Ideal chain total energy: 0.000000

	Critical temparure [K]: 435.580000
	Critical pressure [Pa]: 4206000.000000
	Acentric factor [-]: 0.203000

	RXMC partition factor ln(q/V) [ln(A^(-3))]:      89.0386000000

	Vapour=stable, Liquid=metastable

	MolFraction:           1.0000000000 [-]
	Compressibility:       0.0000000000 [-]

	Density of the bulk fluid phase:       0.0000000000 [kg/m^3]


	Amount of excess molecules:       0.0000000000 [-]

	Conversion factor molecules/unit cell -> mol/kg:                inf [-]
	Conversion factor molecules/unit cell -> mg/g:                inf [-]
	Conversion factor molecules/unit cell -> cm^3 STP/gr:                inf [-]
	Conversion factor molecules/unit cell -> cm^3 STP/cm^3:       0.0110279333 [-]
	Conversion factor mol/kg -> cm^3 STP/gr:      22.4139757476 [-]
	Conversion factor mol/kg -> cm^3 STP/cm^3:       0.0000000000 [-]

	Partial pressure: -16605402.00000000000000 [Pa]
	                    -124540.51499999999942 [Torr]
	                       -166.05402000000001 [bar]
	                       -163.88257586972614 [atm]

	Fugacity coefficient:      -1.0000000000 [-]

	Partial fugacity:  16605402.00000000000000 [Pa]
	                     124540.51499999999942 [Torr]
	                        166.05402000000001 [bar]
	                        163.88257586972614 [atm]

	Molecule contains 4 number of atoms
		atom:    0  is of type:    1 [   CH3_sp3] (group: 0)
		atom:    1  is of type:    3 [    CH_sp2] (group: 0)
		atom:    2  is of type:    3 [    CH_sp2] (group: 0)
		atom:    3  is of type:    1 [   CH3_sp3] (group: 0)

	Molecule contains 0 chirality centers

	Molecule contains 1 number of groups

		group: 0 containing: 4 elements
		-------------------------------------------------
		the group is modelled as flexible, i.e. no constraints
		Mass: 56.106320 [a.u.]
		Mass: 0.027605 [kg/m^3]

		Rotational Degrees of freedom: 0
		Diagonalized inertia vector:       0.0000000000
		                                   0.0000000000
		                                   0.0000000000
		element: 0 atom: 0 [   CH3_sp3] Charge:  0.000000 Anisotropy: 0.000000 Connectivity: 1 (1 )
		element: 1 atom: 1 [    CH_sp2] Charge:  0.000000 Anisotropy: 0.000000 Connectivity: 2 (0 2 )
		element: 2 atom: 2 [    CH_sp2] Charge:  0.000000 Anisotropy: 0.000000 Connectivity: 2 (1 3 )
		element: 3 atom: 3 [   CH3_sp3] Charge:  0.000000 Anisotropy: 0.000000 Connectivity: 1 (2 )

		Dipole:           0.0000000000 [D]
		Quadrupole:       0.0000000000       0.0000000000       0.0000000000 [D Angstrom]
		Quadrupole tensor [D Angstrom]
				       0.0000000000       0.0000000000       0.0000000000
				       0.0000000000       0.0000000000       0.0000000000
				       0.0000000000       0.0000000000       0.0000000000

	Starting bead for growth               : 0

	Degrees of freedom                     : 0
	Translational degrees of freedom       : 0
	Rotational degrees of freedom          : 0
	Vibrational degrees of freedom         : 0
	Constraint degrees of freedom          : 0

	Number of atoms                        : 4

	Number of constraint bonds             : 0
	Number of constraint bends             : 0
	Number of constraint inversion bends   : 0
	Number of constraint torsions          : 0
	Number of constraint improper torsions : 0
	Number of constraint improper torsions : 0

	Number of bonds                        : 3
	Number of Urey-Bradleys                : 0
	Number of bends                        : 2
	Number of inversion bends              : 0
	Number of torsions                     : 1
	Number of improper torsions            : 0
	Number of improper torsions            : 0

	Number of bond/bond cross terms        : 0
	Number of bond/bend cross terms        : 0
	Number of bend/bend cross terms        : 0
	Number of stretch/torsion cross terms  : 0
	Number of bend/torsion cross terms     : 0

	Number of charges                      : 0
	Number of bond-dipoles                 : 0

	Number of intra Van der Waals                             : 0
	Number of intra charge-charge Coulomb                     : 0
	Number of intra charge-bonddipole Coulomb                 : 0
	Number of intra bonddipole-bonddipole Coulomb             : 0

	Number of excluded intra charge-charge Coulomb                     : 0
	Number of excluded intra charge-bonddipole Coulomb                 : 0
	Number of excluded intra bonddipole-bonddipole Coulomb             : 0

	Number of cbmc-config moves                               : 0

	Particle Moves:             
		ProbabilityTranslationMove:                  35.000000
			TranslationDirection:      XYZ
		Percentage of random translation moves:            0.000000
		Percentage of rotation moves:                      53.900000
		Percentage of random rotation moves:               0.000000
		Percentage of partial reinsertion moves:           0.000000
		Percentage of reinsertion moves:                   10.000000
		Percentage of reinsertion-in-place moves:          0.000000
		Percentage of reinsertion-in-plane moves:          0.000000
		Percentage of identity-change moves:               0.000000
		Percentage of swap (insert/delete) moves:          0.000000
		Percentage of CF swap lambda moves:                0.000000
		Percentage of CB/CFMC swap lambda moves:           0.000000
		Percentage of Widom insertion moves:               0.000000
		Percentage of CF-Widom insertion moves:            0.000000
		Percentage of Gibbs Widom insertion moves:         0.000000
		Percentage of surface-area moves:                  0.000000
		Percentage of Gibbs particle-transfer moves:       0.000000
		Percentage of Gibbs identity-change moves:         0.000000
		Percentage of CF Gibbs lambda-transfer moves:      0.000000
		Percentage of CB/CFMC Gibbs lambda-transfer moves: 0.000000
		Percentage of exchange frac./int. particle moves:  0.000000
		Percentage of fractional mol. to other box moves:  0.000000
		Percentage of lambda-change moves:                 0.000000
		Percentage of fractional to integer moves:         0.000000

	System Moves:
		Percentage of parallel-tempering moves:            0.000000
		Percentage of hyper-parallel-tempering moves:      0.000000
		Percentage of parallel-mol-fraction moves:         0.000000
			   Component A: 0 B: 1
		Percentage of chiral inversion moves:              0.000000
		Percentage of Hybrid-NVE moves:                    0.000000
		Percentage of Hybrid-NPH moves:                    0.000000
		Percentage of Hybrid-NPHPR moves:                  0.000000
		Percentage of volume-change moves:                 0.100000
		Percentage of box-shape-change moves:              0.000000
		Percentage of Gibbs volume-change moves:           0.000000
		Percentage of framework-change moves:              0.000000
		Percentage of framework-shift moves:               0.000000
		Percentage of reactive MC moves:                   1.000000

	Moves are restricted: No
	No biased sampling used for this component

	Number of Bonds: 3
	--------------------------------------------
	Bond interaction 0: A=0 B=1 Type:HARMONIC_BOND
		HARMONIC_BOND: p_0/k_B=96500.000000 [K/A^2], p_1=1.540000   [A]
	Bond interaction 1: A=1 B=2 Type:HARMONIC_BOND
		HARMONIC_BOND: p_0/k_B=96500.000000 [K/A^2], p_1=1.330000   [A]
	Bond interaction 2: A=2 B=3 Type:HARMONIC_BOND
		HARMONIC_BOND: p_0/k_B=96500.000000 [K/A^2], p_1=1.540000   [A]

	Number of Bends: 2
	--------------------------------------------
	Bend interaction 0: A=0 B=1 C=2 Type:HARMONIC_BEND
		HARMONIC_BEND: p_0/k_B=70420.000000 [K/rad^2], p_1=119.700000 [degrees]
	Bend interaction 1: A=1 B=2 C=3 Type:HARMONIC_BEND
		HARMONIC_BEND: p_0/k_B=70420.000000 [K/rad^2], p_1=119.700000 [degrees]

	Number of Torsions: 1
	--------------------------------------------
	Torsions interaction 0: A=0 B=1 C=2 D=3 Type:HARMONIC_DIHEDRAL
		HARMONIC_DIHEDRAL: p_0/k_B=12400.000000 [K/rad^2], p_2=180.000000 [degrees]


	number of identity-config changes: 1
	--------------------------------------------
	nr fixed 1: 0 

	Number of pockets blocked in a unitcell: 0
		Pockets are NOT blocked for this component

Component 3 [trans-2-butene] (Adsorbate molecule)

	MoleculeDefinitions: Local
	Component contains no atoms with charge
	Component contains no atoms with point dipoles (polarization)
	Component has a net charge of 0.000000

	Ideal chain Rosenbluth weight: 1
	Ideal chain total energy: 0.000000

	Critical temparure [K]: 428.630000
	Critical pressure [Pa]: 4102000.000000
	Acentric factor [-]: 0.218000

	RXMC partition factor ln(q/V) [ln(A^(-3))]:      89.4937000000

	Vapour=stable, Liquid=metastable

	MolFraction:           1.0000000000 [-]
	Compressibility:       0.0000000000 [-]

	Density of the bulk fluid phase:       0.0000000000 [kg/m^3]


	Amount of excess molecules:       0.0000000000 [-]

	Conversion factor molecules/unit cell -> mol/kg:                inf [-]
	Conversion factor molecules/unit cell -> mg/g:                inf [-]
	Conversion factor molecules/unit cell -> cm^3 STP/gr:                inf [-]
	Conversion factor molecules/unit cell -> cm^3 STP/cm^3:       0.0110279333 [-]
	Conversion factor mol/kg -> cm^3 STP/gr:      22.4139757476 [-]
	Conversion factor mol/kg -> cm^3 STP/cm^3:       0.0000000000 [-]

	Partial pressure: -16605402.00000000000000 [Pa]
	                    -124540.51499999999942 [Torr]
	                       -166.05402000000001 [bar]
	                       -163.88257586972614 [atm]

	Fugacity coefficient:      -1.0000000000 [-]

	Partial fugacity:  16605402.00000000000000 [Pa]
	                     124540.51499999999942 [Torr]
	                        166.05402000000001 [bar]
	                        163.88257586972614 [atm]

	Molecule contains 4 number of atoms
		atom:    0  is of type:    1 [   CH3_sp3] (group: 0)
		atom:    1  is of type:    3 [    CH_sp2] (group: 0)
		atom:    2  is of type:    3 [    CH_sp2] (group: 0)
		atom:    3  is of type:    1 [   CH3_sp3] (group: 0)

	Molecule contains 0 chirality centers

	Molecule contains 1 number of groups

		group: 0 containing: 4 elements
		-------------------------------------------------
		the group is modelled as flexible, i.e. no constraints
		Mass: 56.106320 [a.u.]
		Mass: 0.027605 [kg/m^3]

		Rotational Degrees of freedom: 0
		Diagonalized inertia vector:       0.0000000000
		                                   0.0000000000
		                                   0.0000000000
		element: 0 atom: 0 [   CH3_sp3] Charge:  0.000000 Anisotropy: 0.000000 Connectivity: 1 (1 )
		element: 1 atom: 1 [    CH_sp2] Charge:  0.000000 Anisotropy: 0.000000 Connectivity: 2 (0 2 )
		element: 2 atom: 2 [    CH_sp2] Charge:  0.000000 Anisotropy: 0.000000 Connectivity: 2 (1 3 )
		element: 3 atom: 3 [   CH3_sp3] Charge:  0.000000 Anisotropy: 0.000000 Connectivity: 1 (2 )

		Dipole:           0.0000000000 [D]
		Quadrupole:       0.0000000000       0.0000000000       0.0000000000 [D Angstrom]
		Quadrupole tensor [D Angstrom]
				       0.0000000000       0.0000000000       0.0000000000
				       0.0000000000       0.0000000000       0.0000000000
				       0.0000000000       0.0000000000       0.0000000000

	Starting bead for growth               : 0

	Degrees of freedom                     : 0
	Translational degrees of freedom       : 0
	Rotational degrees of freedom          : 0
	Vibrational degrees of freedom         : 0
	Constraint degrees of freedom          : 0

	Number of atoms                        : 4

	Number of constraint bonds             : 0
	Number of constraint bends             : 0
	Number of constraint inversion bends   : 0
	Number of constraint torsions          : 0
	Number of constraint improper torsions : 0
	Number of constraint improper torsions : 0

	Number of bonds                        : 3
	Number of Urey-Bradleys                : 0
	Number of bends                        : 2
	Number of inversion bends              : 0
	Number of torsions                     : 1
	Number of improper torsions            : 0
	Number of improper torsions            : 0

	Number of bond/bond cross terms        : 0
	Number of bond/bend cross terms        : 0
	Number of bend/bend cross terms        : 0
	Number of stretch/torsion cross terms  : 0
	Number of bend/torsion cross terms     : 0

	Number of charges                      : 0
	Number of bond-dipoles                 : 0

	Number of intra Van der Waals                             : 0
	Number of intra charge-charge Coulomb                     : 0
	Number of intra charge-bonddipole Coulomb                 : 0
	Number of intra bonddipole-bonddipole Coulomb             : 0

	Number of excluded intra charge-charge Coulomb                     : 0
	Number of excluded intra charge-bonddipole Coulomb                 : 0
	Number of excluded intra bonddipole-bonddipole Coulomb             : 0

	Number of cbmc-config moves                               : 0

	Particle Moves:             
		ProbabilityTranslationMove:                  35.000000
			TranslationDirection:      XYZ
		Percentage of random translation moves:            0.000000
		Percentage of rotation moves:                      53.900000
		Percentage of random rotation moves:               0.000000
		Percentage of partial reinsertion moves:           0.000000
		Percentage of reinsertion moves:                   10.000000
		Percentage of reinsertion-in-place moves:          0.000000
		Percentage of reinsertion-in-plane moves:          0.000000
		Percentage of identity-change moves:               0.000000
		Percentage of swap (insert/delete) moves:          0.000000
		Percentage of CF swap lambda moves:                0.000000
		Percentage of CB/CFMC swap lambda moves:           0.000000
		Percentage of Widom insertion moves:               0.000000
		Percentage of CF-Widom insertion moves:            0.000000
		Percentage of Gibbs Widom insertion moves:         0.000000
		Percentage of surface-area moves:                  0.000000
		Percentage of Gibbs particle-transfer moves:       0.000000
		Percentage of Gibbs identity-change moves:         0.000000
		Percentage of CF Gibbs lambda-transfer moves:      0.000000
		Percentage of CB/CFMC Gibbs lambda-transfer moves: 0.000000
		Percentage of exchange frac./int. particle moves:  0.000000
		Percentage of fractional mol. to other box moves:  0.000000
		Percentage of lambda-change moves:                 0.000000
		Percentage of fractional to integer moves:         0.000000

	System Moves:
		Percentage of parallel-tempering moves:            0.000000
		Percentage of hyper-parallel-tempering moves:      0.000000
		Percentage of parallel-mol-fraction moves:         0.000000
			   Component A: 0 B: 1
		Percentage of chiral inversion moves:              0.000000
		Percentage of Hybrid-NVE moves:                    0.000000
		Percentage of Hybrid-NPH moves:                    0.000000
		Percentage of Hybrid-NPHPR moves:                  0.000000
		Percentage of volume-change moves:                 0.100000
		Percentage of box-shape-change moves:              0.000000
		Percentage of Gibbs volume-change moves:           0.000000
		Percentage of framework-change moves:              0.000000
		Percentage of framework-shift moves:               0.000000
		Percentage of reactive MC moves:                   1.000000

	Moves are restricted: No
	No biased sampling used for this component

	Number of Bonds: 3
	--------------------------------------------
	Bond interaction 0: A=0 B=1 Type:HARMONIC_BOND
		HARMONIC_BOND: p_0/k_B=96500.000000 [K/A^2], p_1=1.540000   [A]
	Bond interaction 1: A=1 B=2 Type:HARMONIC_BOND
		HARMONIC_BOND: p_0/k_B=96500.000000 [K/A^2], p_1=1.330000   [A]
	Bond interaction 2: A=2 B=3 Type:HARMONIC_BOND
		HARMONIC_BOND: p_0/k_B=96500.000000 [K/A^2], p_1=1.540000   [A]

	Number of Bends: 2
	--------------------------------------------
	Bend interaction 0: A=0 B=1 C=2 Type:HARMONIC_BEND
		HARMONIC_BEND: p_0/k_B=70420.000000 [K/rad^2], p_1=119.700000 [degrees]
	Bend interaction 1: A=1 B=2 C=3 Type:HARMONIC_BEND
		HARMONIC_BEND: p_0/k_B=70420.000000 [K/rad^2], p_1=119.700000 [degrees]

	Number of Torsions: 1
	--------------------------------------------
	Torsions interaction 0: A=0 B=1 C=2 D=3 Type:HARMONIC_DIHEDRAL
		HARMONIC_DIHEDRAL: p_0/k_B=13400.000000 [K/rad^2], p_2=0.000000   [degrees]


	number of identity-config changes: 1
	--------------------------------------------
	nr fixed 1: 0 

	Number of pockets blocked in a unitcell: 0
		Pockets are NOT blocked for this component



System Properties
===========================================================================
Unit cell size: 150.000000 150.000000 150.000000
Cell angles (radians)  alpha: 1.570796 beta: 1.570796 gamma: 1.570796
Cell angles (degrees)  alpha: 90.000000 beta: 90.000000 gamma: 90.000000
Number of unitcells [a]: 1
Number of unitcells [b]: 1
Number of unitcells [c]: 1

RECTANGULAR Boundary conditions: alpha=beta=gamma=90 degrees

Cartesian axis A is collinear with crystallographic axis a
Cartesian axis B is collinear with (axb)xA
Cartesian axis C is collinear with (axb)

lengths of cell vectors:
150.00000 150.00000 150.00000
cosines of cell angles:
  0.00000   0.00000   0.00000
perpendicular cell widths:
150.00000 150.00000 150.00000
volume of the cell: 3375000.000000000000 (A^3)

Orthogonalization matrix Box
Transforms fractional coordinates abc into orthonormal Cartesian coordinates xyz
Deorthogonalization matrix InverseBox
Transforms orthonormal Cartesian coordinates xyz into fractional coordinates xyz

Box[0]:
	  150.000000000000     0.000000000000     0.000000000000
	    0.000000000000   150.000000000000     0.000000000000
	    0.000000000000     0.000000000000   150.000000000000

Inverse box[0]:
	    0.006666666667    -0.000000000000    -0.000000000000
	    0.000000000000     0.006666666667    -0.000000000000
	    0.000000000000     0.000000000000     0.006666666667


Unitcell box[0]:
	  150.000000000000     0.000000000000     0.000000000000
	    0.000000000000   150.000000000000     0.000000000000
	    0.000000000000     0.000000000000   150.000000000000

Unitcell inverse box[0]:
	    0.006666666667    -0.000000000000    -0.000000000000
	    0.000000000000     0.006666666667    -0.000000000000
	    0.000000000000     0.000000000000     0.006666666667

lengths of cell vectors (inverse box):
  0.00667   0.00667   0.00667
cosines of cell angles (inverse box):
 -0.00000  -0.00000  -0.00000
perpendicular cell widths (inverse):
  0.00667   0.00667   0.00667
volume of the cell: 3375000.000000000000 (A^3)

No replicas are used
Framework is simulated as 'rigid'
Number of framework atoms: 0
Number of framework atoms in the unit cell: 0
Framework Mass:     0.000000000000 [g/mol]
Framework Density:     0.000000000000 [kg/m^3]                inf [cm^3/g]
Helium void fraction:    0.00000000
Available pore volume:    0.00000000 [A^3]           nan [cm^3/g]
Conversion factor from molecule/unit cell -> kmol/m^3: 0.000492011, kmol/m^3 accesible pore volume: inf

Number Of Frameworks (per system): 0
----------------------------------------------------------------------

Current Atom Status
===========================================================================
Number of framework atoms        : 0
Number of cations molecules      : 0
Number of adsorbate molecules    : 406
Component    0 :  402 molecules
Component    1 :    1 molecules
Component    2 :    1 molecules
Component    3 :    2 molecules
Pseudo Atoms    0 [    UNIT]:    0 atoms
Pseudo Atoms    1 [ CH3_sp3]:  408 atoms
Pseudo Atoms    2 [ CH2_sp2]:  404 atoms
Pseudo Atoms    3 [  CH_sp2]:  408 atoms


Current (initial full energy) Energy Status
===========================================================================

Internal energy:
Host stretch energy:                                            0.00000000
Host UreyBradley energy:                                        0.00000000
Host bend energy:                                               0.00000000
Host inversion-bend energy:                                     0.00000000
Host torsion energy:                                            0.00000000
Host improper torsion energy:                                   0.00000000
Host out-of-plane energy:                                       0.00000000
Host stretch/stretch energy:                                    0.00000000
Host bend/bend energy:                                          0.00000000
Host stretch/bend energy:                                       0.00000000
Host stretch/torsion energy:                                    0.00000000
Host bend/torsion energy:                                       0.00000000

Adsorbate stretch energy:                                  169811.93456747
Adsorbate UreyBradley energy:                                   0.00000000
Adsorbate bend energy:                                      89516.22935514
Adsorbate inversion-bend energy:                                0.00000000
Adsorbate torsion energy:                                    1069.04578245
Adsorbate improper torsion energy:                              0.00000000
Adsorbate out-of-plane energy:                                  0.00000000
Adsorbate stretch/stretch energy:                               0.00000000
Adsorbate bend/bend energy:                                     0.00000000
Adsorbate stretch/bend energy:                                  0.00000000
Adsorbate stretch/torsion energy:                               0.00000000
Adsorbate bend/torsion energy:                                  0.00000000
Adsorbate intra VDW energy:                                     0.00000000
Adsorbate intra charge-charge Coulomb energy:                   0.00000000
Adsorbate intra charge-bonddipole Coulomb energy:               0.00000000
Adsorbate intra bonddipole-bonddipole Coulomb energy:           0.00000000

Cation stretch energy:                                          0.00000000
Cation UreyBradley energy:                                      0.00000000
Cation bend energy:                                             0.00000000
Cation inversion-bend energy:                                   0.00000000
Cation torsion energy:                                          0.00000000
Cation improper torsion energy:                                 0.00000000
Cation out-of-plane energy:                                     0.00000000
Cation stretch/stretch energy:                                  0.00000000
Cation bend/bend energy:                                        0.00000000
Cation stretch/bend energy:                                     0.00000000
Cation stretch/torsion energy:                                  0.00000000
Cation bend/torsion energy:                                     0.00000000
Cation intra VDW energy:                                        0.00000000
Cation intra charge-charge Coulomb energy:                      0.00000000
Cation intra charge-bonddipole Coulomb energy:                  0.00000000
Cation intra bonddipole-bonddipole Coulomb energy:              0.00000000

Host/Host energy:                                             0.00000000
	Host/Host VDW energy:                                         0.00000000
	Host/Host Coulomb energy:                                     0.00000000
	Host/Host charge-charge Real energy:                          0.00000000
	Host/Host charge-charge Fourier energy:                       0.00000000
	Host/Host charge-bonddipole Real energy:                      0.00000000
	Host/Host charge-bonddipole Fourier energy:                   0.00000000
	Host/Host bondipole-bonddipole Real energy:                   0.00000000
	Host/Host bondipole-bonddipole Fourier energy:                0.00000000

Host/Adsorbate energy:                                        0.00000000
	Host/Adsorbate VDW energy:                                    0.00000000
	Host/Adsorbate Coulomb energy:                                0.00000000
	Host/Adsorbate charge-charge Real energy:                     0.00000000
	Host/Adsorbate charge-charge Fourier energy:                  0.00000000
	Host/Adsorbate charge-bonddipole Real energy:                 0.00000000
	Host/Adsorbate charge-bonddipole Fourier energy:              0.00000000
	Host/Adsorbate bondipole-bonddipole Real energy:              0.00000000
	Host/Adsorbate bondipole-bonddipole Fourier energy:           0.00000000

Host/Cation energy:                                           0.00000000
	Host/Cation VDW energy:                                       0.00000000
	Host/Cation Coulomb energy:                                   0.00000000
	Host/Cation charge-charge Real energy:                        0.00000000
	Host/Cation charge-charge Fourier energy:                     0.00000000
	Host/Cation charge-bonddipole Real energy:                    0.00000000
	Host/Cation charge-bonddipole Fourier energy:                 0.00000000
	Host/Cation bondipole-bonddipole Real energy:                 0.00000000
	Host/Cation bondipole-bonddipole Fourier energy:              0.00000000

Adsorbate/Adsorbate energy:                                    -8697.98492616
	Adsorbate/Adsorbate VDW energy:                                -8697.98492616
	Adsorbate/Adsorbate Coulomb energy:                                0.00000000
	Adsorbate/Adsorbate charge-charge Real energy:                     0.00000000
	Adsorbate/Adsorbate charge-charge Fourier energy:                  0.00000000
	Adsorbate/Adsorbate charge-bonddipole Real energy:                 0.00000000
	Adsorbate/Adsorbate charge-bonddipole Fourier energy:              0.00000000
	Adsorbate/Adsorbate bondipole-bonddipole Real energy:              0.00000000
	Adsorbate/Adsorbate bondipole-bonddipole Fourier energy:           0.00000000

Adsorbate/Cation energy:                                           0.00000000
	Adsorbate/Cation VDW energy:                                       0.00000000
	Adsorbate/Cation Coulomb energy:                                   0.00000000
	Adsorbate/Cation charge-charge Real energy:                        0.00000000
	Adsorbate/Cation charge-charge Fourier energy:                     0.00000000
	Adsorbate/Cation charge-bonddipole Real energy:                    0.00000000
	Adsorbate/Cation charge-bonddipole Fourier energy:                 0.00000000
	Adsorbate/Cation bondipole-bonddipole Real energy:                 0.00000000
	Adsorbate/Cation bondipole-bonddipole Fourier energy:              0.00000000

Cation/Cation energy:                                           0.00000000
	Cation/Cation VDW energy:                                       0.00000000
	Cation/Cation Coulomb energy:                                   0.00000000
	Cation/Cation charge-charge Real energy:                        0.00000000
	Cation/Cation charge-charge Fourier energy:                     0.00000000
	Cation/Cation charge-bonddipole Real energy:                    0.00000000
	Cation/Cation charge-bonddipole Fourier energy:                 0.00000000
	Cation/Cation bondipole-bonddipole Real energy:                 0.00000000
	Cation/Cation bondipole-bonddipole Fourier energy:              0.00000000

Polarization energy:
	Host polarization energy:                                     0.00000000
	Adsorbate polarization energy:                                0.00000000
	Cation polarization energy:                                   0.00000000
	Host back-polarization energy:                                     0.00000000
	Adsorbate back-polarization energy:                                0.00000000
	Cation back-polarization energy:                                   0.00000000

Tail-correction energy:                                    -266.74089058

Distance constraints energy:                                  0.00000000
Angle constraints energy:                                     0.00000000
Dihedral constraints energy:                                  0.00000000
Inversion-bend constraints energy:                            0.00000000
Out-of-plane distance constraints energy:                     0.00000000
Exclusion constraints energy:                                 0.00000000

===================================================================
Total energy: 251432.483888316434
	Total Van der Waals: -8697.984926
	Total Coulomb: 0.000000

	Total Polarization: 0.000000







+++++++++++++++++++++++++++++++++++++++++++++++++++++++++++++++++++++++++
Starting simulation
+++++++++++++++++++++++++++++++++++++++++++++++++++++++++++++++++++++++++

[Equilibration] Current cycle: 0 out of 25000
========================================================================================================

Net charge: 0 (F: 0, A: 0, C: 0)
Current Box: 150.00000   0.00000   0.00000 [A]
               0.00000 150.00000   0.00000 [A]
               0.00000   0.00000 150.00000 [A]
Box-lengths: 150.00000 150.00000 150.00000 Box-angles:   90.00000  90.00000  90.00000 [degrees]
Volume: 3375000.00000 [A^3]

Reactions:
----------------------------------------------------------------------------------------------------------------------------------------------------
Reaction 0, current Lambda:       0.5000000000, maximum Lambda-change:       0.3000000000
	Fractional molecules:  2 (ethene) 4 (trans-2-butene) <--> 0 (propene) 1 (propene)
	Biasing Factors: 0.000000 0.000000 0.000000 0.000000 0.000000 0.000000 0.000000 0.000000 0.000000 0.000000 
	                 0.000000 0.000000 0.000000 0.000000 0.000000 0.000000 0.000000 0.000000 0.000000 0.000000 
	                 0.000000 
Reaction 1, current Lambda:       0.5000000000, maximum Lambda-change:       0.3000000000
	Fractional molecules:  3 (cis-2-butene) <--> 5 (trans-2-butene)
	Biasing Factors: 0.000000 0.000000 0.000000 0.000000 0.000000 0.000000 0.000000 0.000000 0.000000 0.000000 
	                 0.000000 0.000000 0.000000 0.000000 0.000000 0.000000 0.000000 0.000000 0.000000 0.000000 
	                 0.000000 

Amount of molecules per component:
----------------------------------------------------------------------------------------------------------------------------------------------------
Component 0 (propene), current number of integer/fractional/reaction molecules: 400/0/2, density:   8.28149 [kg/m^3]
Component 1 (ethene), current number of integer/fractional/reaction molecules: 0/0/1, density:   0.00000 [kg/m^3]
Component 2 (cis-2-butene), current number of integer/fractional/reaction molecules: 0/0/1, density:   0.00000 [kg/m^3]
Component 3 (trans-2-butene), current number of integer/fractional/reaction molecules: 0/0/2, density:   0.00000 [kg/m^3]
----------------------------------------------------------------------------------------------------------------------------------------------------
Degrees of freedom: 3660 0 3660 0
Number of Framework-atoms:      0
Number of Adsorbates:         406 (400 integer, 0 fractional, 6 reaction)
Number of Cations:              0 (0 integer, 0 fractional, 0 reaction)

Current total potential energy:            251432.4838883164 [K]
	Current Host-Host energy:                     0.0000000000 [K]
	Current Host-Adsorbate energy:                0.0000000000 [K]
	Current Host-Cation energy:                   0.0000000000 [K]
	Current Adsorbate-Adsorbate energy:       -8697.9849261555 [K]
	Current Cation-Cation energy:                 0.0000000000 [K]
	Current Adsorbate-Cation energy:              0.0000000000 [K]



[Equilibration] Current cycle: 5000 out of 25000
========================================================================================================

Net charge: 0 (F: 0, A: 0, C: 0)
Current Box: 290.95888   0.00000   0.00000 [A]
               0.00000 290.95888   0.00000 [A]
               0.00000   0.00000 290.95888 [A]
Box-lengths: 290.95888 290.95888 290.95888 Box-angles:   90.00000  90.00000  90.00000 [degrees]
Volume: 24631726.70900 [A^3]

Reactions:
----------------------------------------------------------------------------------------------------------------------------------------------------
Reaction 0, current Lambda:       0.4696479300, maximum Lambda-change:       0.4500000000
	Fractional molecules:  130 (ethene) 363 (trans-2-butene) <--> 106 (propene) 387 (propene)
	Biasing Factors: 0.000000 -0.080000 0.050000 0.210000 0.300000 0.050000 0.100000 0.120000 0.000000 0.010000 
	                 -0.110000 -0.090000 -0.030000 -0.160000 -0.160000 0.080000 -0.200000 -0.110000 -0.110000 0.010000 
	                 -0.090000 
Reaction 1, current Lambda:       0.8066362369, maximum Lambda-change:       0.4500000000
	Fractional molecules:  203 (cis-2-butene) <--> 322 (trans-2-butene)
	Biasing Factors: 0.000000 0.120000 -0.100000 -0.100000 -0.030000 0.070000 -0.150000 -0.260000 0.120000 -0.030000 
	                 0.060000 0.210000 -0.020000 -0.080000 0.020000 -0.030000 0.260000 -0.040000 -0.020000 -0.080000 
	                 -0.340000 

Amount of molecules per component:
----------------------------------------------------------------------------------------------------------------------------------------------------
Component 0 (propene), current number of integer/fractional/reaction molecules: 240/0/2, density:   0.68083 [kg/m^3]
Component 1 (ethene), current number of integer/fractional/reaction molecules: 80/0/1, density:   0.15130 [kg/m^3]
Component 2 (cis-2-butene), current number of integer/fractional/reaction molecules: 28/0/1, density:   0.10591 [kg/m^3]
Component 3 (trans-2-butene), current number of integer/fractional/reaction molecules: 52/0/2, density:   0.19668 [kg/m^3]
----------------------------------------------------------------------------------------------------------------------------------------------------
Degrees of freedom: 3660 0 3660 0
Number of Framework-atoms:      0
Number of Adsorbates:         406 (400 integer, 0 fractional, 6 reaction)
Number of Cations:              0 (0 integer, 0 fractional, 0 reaction)

Current total potential energy:            312648.5163607947 [K]
	Current Host-Host energy:                     0.0000000000 [K]
	Current Host-Adsorbate energy:                0.0000000000 [K]
	Current Host-Cation energy:                   0.0000000000 [K]
	Current Adsorbate-Adsorbate energy:       -1378.3329484764 [K]
	Current Cation-Cation energy:                 0.0000000000 [K]
	Current Adsorbate-Cation energy:              0.0000000000 [K]



[Equilibration] Current cycle: 10000 out of 25000
========================================================================================================

Net charge: 0 (F: 0, A: 0, C: 0)
Current Box: 293.26899   0.00000   0.00000 [A]
               0.00000 293.26899   0.00000 [A]
               0.00000   0.00000 293.26899 [A]
Box-lengths: 293.26899 293.26899 293.26899 Box-angles:   90.00000  90.00000  90.00000 [degrees]
Volume: 25223098.93893 [A^3]

Reactions:
----------------------------------------------------------------------------------------------------------------------------------------------------
Reaction 0, current Lambda:       0.8561060203, maximum Lambda-change:       0.6750000000
	Fractional molecules:  70 (ethene) 323 (trans-2-butene) <--> 142 (propene) 322 (propene)
	Biasing Factors: 0.000000 0.210000 -0.010000 0.055000 -0.075000 0.005000 0.190000 -0.045000 -0.115000 0.000000 
	                 0.085000 -0.135000 0.240000 -0.100000 0.105000 0.030000 -0.105000 0.030000 -0.130000 0.015000 
	                 -0.120000 
Reaction 1, current Lambda:       0.7280087944, maximum Lambda-change:       0.6750000000
	Fractional molecules:  140 (cis-2-butene) <--> 364 (trans-2-butene)
	Biasing Factors: 0.000000 0.020000 0.145000 0.100000 0.235000 0.130000 0.065000 0.210000 0.185000 0.245000 
	                 0.375000 0.260000 0.330000 0.055000 0.340000 0.375000 0.280000 0.390000 0.320000 0.320000 
	                 0.475000 

Amount of molecules per component:
----------------------------------------------------------------------------------------------------------------------------------------------------
Component 0 (propene), current number of integer/fractional/reaction molecules: 250/0/2, density:   0.69257 [kg/m^3]
Component 1 (ethene), current number of integer/fractional/reaction molecules: 75/0/1, density:   0.13851 [kg/m^3]
Component 2 (cis-2-butene), current number of integer/fractional/reaction molecules: 30/0/1, density:   0.11081 [kg/m^3]
Component 3 (trans-2-butene), current number of integer/fractional/reaction molecules: 45/0/2, density:   0.16622 [kg/m^3]
----------------------------------------------------------------------------------------------------------------------------------------------------
Degrees of freedom: 3660 0 3660 0
Number of Framework-atoms:      0
Number of Adsorbates:         406 (400 integer, 0 fractional, 6 reaction)
Number of Cations:              0 (0 integer, 0 fractional, 0 reaction)

Current total potential energy:            279682.5187782045 [K]
	Current Host-Host energy:                     0.0000000000 [K]
	Current Host-Adsorbate energy:                0.0000000000 [K]
	Current Host-Cation energy:                   0.0000000000 [K]
	Current Adsorbate-Adsorbate energy:       -1018.6135402514 [K]
	Current Cation-Cation energy:                 0.0000000000 [K]
	Current Adsorbate-Cation energy:              0.0000000000 [K]



[Equilibration] Current cycle: 15000 out of 25000
========================================================================================================

Net charge: 0 (F: 0, A: 0, C: 0)
Current Box: 288.59470   0.00000   0.00000 [A]
               0.00000 288.59470   0.00000 [A]
               0.00000   0.00000 288.59470 [A]
Box-lengths: 288.59470 288.59470 288.59470 Box-angles:   90.00000  90.00000  90.00000 [degrees]
Volume: 24036158.30318 [A^3]

Reactions:
----------------------------------------------------------------------------------------------------------------------------------------------------
Reaction 0, current Lambda:       0.2168032272, maximum Lambda-change:       1.0000000000
	Fractional molecules:  29 (ethene) 132 (trans-2-butene) <--> 337 (propene) 210 (propene)
	Biasing Factors: 0.000000 0.102500 0.110000 0.022500 0.172500 0.262500 0.170000 0.152500 0.120000 0.152500 
	                 0.195000 0.265000 0.175000 0.195000 0.190000 0.092500 0.187500 0.115000 0.107500 0.182500 
	                 0.117500 
Reaction 1, current Lambda:       0.8674909683, maximum Lambda-change:       1.0000000000
	Fractional molecules:  269 (cis-2-butene) <--> 383 (trans-2-butene)
	Biasing Factors: 0.000000 -0.067500 0.005000 -0.052500 -0.020000 -0.015000 -0.042500 -0.140000 -0.020000 -0.047500 
	                 0.040000 -0.035000 -0.050000 0.025000 -0.027500 0.017500 -0.140000 0.000000 -0.020000 0.037500 
	                 -0.035000 

Amount of molecules per component:
----------------------------------------------------------------------------------------------------------------------------------------------------
Component 0 (propene), current number of integer/fractional/reaction molecules: 264/0/2, density:   0.76747 [kg/m^3]
Component 1 (ethene), current number of integer/fractional/reaction molecules: 68/0/1, density:   0.13179 [kg/m^3]
Component 2 (cis-2-butene), current number of integer/fractional/reaction molecules: 26/0/1, density:   0.10078 [kg/m^3]
Component 3 (trans-2-butene), current number of integer/fractional/reaction molecules: 42/0/2, density:   0.16280 [kg/m^3]
----------------------------------------------------------------------------------------------------------------------------------------------------
Degrees of freedom: 3660 0 3660 0
Number of Framework-atoms:      0
Number of Adsorbates:         406 (400 integer, 0 fractional, 6 reaction)
Number of Cations:              0 (0 integer, 0 fractional, 0 reaction)

Current total potential energy:            291332.6747455489 [K]
	Current Host-Host energy:                     0.0000000000 [K]
	Current Host-Adsorbate energy:                0.0000000000 [K]
	Current Host-Cation energy:                   0.0000000000 [K]
	Current Adsorbate-Adsorbate energy:       -1390.8995546230 [K]
	Current Cation-Cation energy:                 0.0000000000 [K]
	Current Adsorbate-Cation energy:              0.0000000000 [K]



[Equilibration] Current cycle: 20000 out of 25000
========================================================================================================

Net charge: 0 (F: 0, A: 0, C: 0)
Current Box: 292.96976   0.00000   0.00000 [A]
               0.00000 292.96976   0.00000 [A]
               0.00000   0.00000 292.96976 [A]
Box-lengths: 292.96976 292.96976 292.96976 Box-angles:   90.00000  90.00000  90.00000 [degrees]
Volume: 25145968.38713 [A^3]

Reactions:
----------------------------------------------------------------------------------------------------------------------------------------------------
Reaction 0, current Lambda:       0.6840529130, maximum Lambda-change:       1.0000000000
	Fractional molecules:  311 (ethene) 266 (trans-2-butene) <--> 178 (propene) 394 (propene)
	Biasing Factors: 0.000000 0.071250 -0.046250 0.010000 0.002500 0.048750 0.010000 0.026250 0.068750 0.031250 
	                 0.081250 -0.050000 0.015000 0.107500 -0.001250 0.032500 -0.002500 0.017500 -0.101250 0.003750 
	                 0.002500 
Reaction 1, current Lambda:       0.3600431890, maximum Lambda-change:       1.0000000000
	Fractional molecules:  211 (cis-2-butene) <--> 141 (trans-2-butene)
	Biasing Factors: 0.000000 -0.068750 -0.067500 0.012500 -0.041250 -0.043750 0.023750 -0.027500 -0.081250 -0.095000 
	                 -0.072500 -0.033750 -0.071250 -0.013750 -0.083750 -0.122500 -0.120000 -0.078750 0.018750 -0.050000 
	                 -0.100000 

Amount of molecules per component:
----------------------------------------------------------------------------------------------------------------------------------------------------
Component 0 (propene), current number of integer/fractional/reaction molecules: 232/0/2, density:   0.64468 [kg/m^3]
Component 1 (ethene), current number of integer/fractional/reaction molecules: 84/0/1, density:   0.15561 [kg/m^3]
Component 2 (cis-2-butene), current number of integer/fractional/reaction molecules: 35/0/1, density:   0.12968 [kg/m^3]
Component 3 (trans-2-butene), current number of integer/fractional/reaction molecules: 49/0/2, density:   0.18155 [kg/m^3]
----------------------------------------------------------------------------------------------------------------------------------------------------
Degrees of freedom: 3660 0 3660 0
Number of Framework-atoms:      0
Number of Adsorbates:         406 (400 integer, 0 fractional, 6 reaction)
Number of Cations:              0 (0 integer, 0 fractional, 0 reaction)

Current total potential energy:            303406.7938277388 [K]
	Current Host-Host energy:                     0.0000000000 [K]
	Current Host-Adsorbate energy:                0.0000000000 [K]
	Current Host-Cation energy:                   0.0000000000 [K]
	Current Adsorbate-Adsorbate energy:        -847.6889780300 [K]
	Current Cation-Cation energy:                 0.0000000000 [K]
	Current Adsorbate-Cation energy:              0.0000000000 [K]



Average Properties at Current cycle: 0 out of 25000
========================================================================================

Framework surface area:                nan [m^2/g]        0.0000000000 [m^2/cm^3]       0.0000000000 [A^2]
	Cation surface area:                                nan [m^2/g]        0.0000000000 [m^2/cm^3]       0.0000000000 [A^2]
Compressibility:       0.0000000000 [-]
Henry coefficients
	Component 0: 0 [mol/kg/Pa] (Rosenbluth factor new: 0 [-])
	Component 1: 0 [mol/kg/Pa] (Rosenbluth factor new: 0 [-])
	Component 2: 0 [mol/kg/Pa] (Rosenbluth factor new: 0 [-])
	Component 3: 0 [mol/kg/Pa] (Rosenbluth factor new: 0 [-])
Energy <U_gh>_1-<U_h>_0 from Widom


Current cycle: 0 out of 25000
========================================================================================================

Net charge: 0 (F: 0, A: 0, C: 0)
Current Box: 291.16256   0.00000   0.00000 [A]   Average Box: 291.16256   0.00000   0.00000 [A]
               0.00000 291.16256   0.00000 [A]                  0.00000 291.16256   0.00000 [A]
               0.00000   0.00000 291.16256 [A]                  0.00000   0.00000 291.16256 [A]
Box-lengths:  291.16256 291.16256 291.16256 [A] Average: 291.16256 291.16256 291.16256 [A]
Box-angles:   90.00000  90.00000  90.00000 [degrees] Average:  90.00000  90.00000  90.00000 [degrees]
Volume: 24683491.52762 [A^3] Average Volume: 24683491.52762 [A^3]

Reactions:
----------------------------------------------------------------------------------------------------------------------------------------------------
Reaction 0, current Lambda:       0.2677103073, maximum Lambda-change:       1.0000000000
	Fractional molecules:  140 (ethene) 381 (trans-2-butene) <--> 74 (propene) 403 (propene)
	Biasing Factors: 0.000000 0.076250 0.005000 0.018750 -0.028750 0.000625 0.024375 0.023125 0.052500 0.066250 
	                 -0.001250 0.003750 -0.069375 -0.011875 -0.015625 0.043750 -0.023750 0.026250 0.009375 -0.016875 
	                 -0.043750 
Reaction 1, current Lambda:       0.1902021227, maximum Lambda-change:       1.0000000000
	Fractional molecules:  91 (cis-2-butene) <--> 374 (trans-2-butene)
	Biasing Factors: 0.000000 0.046875 -0.013125 -0.008125 0.037500 0.009375 0.025625 0.069375 0.003750 -0.014375 
	                 0.005000 0.045625 0.016250 0.045625 -0.023750 -0.049375 -0.009375 0.028125 0.002500 -0.003750 
	                 0.016875 

Amount of molecules per component:
----------------------------------------------------------------------------------------------------------------------------------------------------
Component 0 (propene), current number of integer/fractional/reaction molecules: 240/0/2 (average 240.00000/  0.00000), density:   0.67940 (average   0.67940) kg/m^3]
Component 1 (ethene), current number of integer/fractional/reaction molecules: 80/0/1 (average  80.00000/  0.00000), density:   0.15098 (average   0.15098) kg/m^3]
Component 2 (cis-2-butene), current number of integer/fractional/reaction molecules: 29/0/1 (average  29.00000/  0.00000), density:   0.10946 (average   0.10946) kg/m^3]
Component 3 (trans-2-butene), current number of integer/fractional/reaction molecules: 51/0/2 (average  51.00000/  0.00000), density:   0.19250 (average   0.19250) kg/m^3]
----------------------------------------------------------------------------------------------------------------------------------------------------
Degrees of freedom: 3660 0 3660 0
Number of Framework-atoms:      0
Number of Adsorbates:         406 (400 integer, 0 fractional, 6 reaction)
Number of Cations:              0 (0 integer, 0 fractional, 0 reaction)

Current total potential energy:            286395.8663922603 [K]  (avg.      286395.8663922603)
	Current Host-Host energy:                     0.0000000000 [K]  (avg.           0.0000000000)
	Current Host-Adsorbate energy:                0.0000000000 [K]  (avg.           0.0000000000)
	Current Host-Cation energy:                   0.0000000000 [K]  (avg.           0.0000000000)
	Current Adsorbate-Adsorbate energy:       -1830.2696192989 [K]  (avg.       -1830.2696192989)
	Current Cation-Cation energy:                 0.0000000000 [K]  (avg.           0.0000000000)
	Current Adsorbate-Cation energy:              0.0000000000 [K]  (avg.           0.0000000000)



Current cycle: 5000 out of 25000
========================================================================================================

Net charge: 0 (F: 0, A: 0, C: 0)
Current Box: 297.84474   0.00000   0.00000 [A]   Average Box: 292.66452   0.00000   0.00000 [A]
               0.00000 297.84474   0.00000 [A]                  0.00000 292.66452   0.00000 [A]
               0.00000   0.00000 297.84474 [A]                  0.00000   0.00000 292.66452 [A]
Box-lengths:  297.84474 297.84474 297.84474 [A] Average: 292.66452 292.66452 292.66452 [A]
Box-angles:   90.00000  90.00000  90.00000 [degrees] Average:  90.00000  90.00000  90.00000 [degrees]
Volume: 26422250.59012 [A^3] Average Volume: 25100360.69164 [A^3]

Reactions:
----------------------------------------------------------------------------------------------------------------------------------------------------
Reaction 0, current Lambda:       0.4681777290, maximum Lambda-change:       1.0000000000
	Fractional molecules:  0 (ethene) 367 (trans-2-butene) <--> 340 (propene) 217 (propene)
	Biasing Factors: 0.000000 0.076250 0.005000 0.018750 -0.028750 0.000625 0.024375 0.023125 0.052500 0.066250 
	                 -0.001250 0.003750 -0.069375 -0.011875 -0.015625 0.043750 -0.023750 0.026250 0.009375 -0.016875 
	                 -0.043750 
Reaction 1, current Lambda:       0.8463337240, maximum Lambda-change:       1.0000000000
	Fractional molecules:  31 (cis-2-butene) <--> 218 (trans-2-butene)
	Biasing Factors: 0.000000 0.046875 -0.013125 -0.008125 0.037500 0.009375 0.025625 0.069375 0.003750 -0.014375 
	                 0.005000 0.045625 0.016250 0.045625 -0.023750 -0.049375 -0.009375 0.028125 0.002500 -0.003750 
	                 0.016875 

Amount of molecules per component:
----------------------------------------------------------------------------------------------------------------------------------------------------
Component 0 (propene), current number of integer/fractional/reaction molecules: 242/0/2 (average 244.29314/  0.00000), density:   0.63998 (average   0.68267) kg/m^3]
Component 1 (ethene), current number of integer/fractional/reaction molecules: 79/0/1 (average  77.85343/  0.00000), density:   0.13928 (average   0.14507) kg/m^3]
Component 2 (cis-2-butene), current number of integer/fractional/reaction molecules: 35/0/1 (average  30.74805/  0.00000), density:   0.12341 (average   0.11463) kg/m^3]
Component 3 (trans-2-butene), current number of integer/fractional/reaction molecules: 44/0/2 (average  47.10538/  0.00000), density:   0.15515 (average   0.17552) kg/m^3]
----------------------------------------------------------------------------------------------------------------------------------------------------
Degrees of freedom: 3660 0 3660 0
Number of Framework-atoms:      0
Number of Adsorbates:         406 (400 integer, 0 fractional, 6 reaction)
Number of Cations:              0 (0 integer, 0 fractional, 0 reaction)

Current total potential energy:            293864.7941467841 [K]  (avg.      289427.8132066508)
	Current Host-Host energy:                     0.0000000000 [K]  (avg.           0.0000000000)
	Current Host-Adsorbate energy:                0.0000000000 [K]  (avg.           0.0000000000)
	Current Host-Cation energy:                   0.0000000000 [K]  (avg.           0.0000000000)
	Current Adsorbate-Adsorbate energy:       -2280.0103406729 [K]  (avg.       -1350.6901252215)
	Current Cation-Cation energy:                 0.0000000000 [K]  (avg.           0.0000000000)
	Current Adsorbate-Cation energy:              0.0000000000 [K]  (avg.           0.0000000000)



Average Properties at Current cycle: 10000 out of 25000
========================================================================================

Framework surface area:                nan [m^2/g]        0.0000000000 [m^2/cm^3]       0.0000000000 [A^2]
	Cation surface area:                                nan [m^2/g]        0.0000000000 [m^2/cm^3]       0.0000000000 [A^2]
Compressibility:       0.0000000000 [-]
Henry coefficients
	Component 0: 0 [mol/kg/Pa] (Rosenbluth factor new: 0 [-])
	Component 1: 0 [mol/kg/Pa] (Rosenbluth factor new: 0 [-])
	Component 2: 0 [mol/kg/Pa] (Rosenbluth factor new: 0 [-])
	Component 3: 0 [mol/kg/Pa] (Rosenbluth factor new: 0 [-])
Energy <U_gh>_1-<U_h>_0 from Widom


Current cycle: 10000 out of 25000
========================================================================================================

[...]
	Block[ 3]            0.00000 [K]
	Block[ 4]            0.00000 [K]
	------------------------------------------------------------------------------
	Average              0.00000 [K] +/-            0.00000 [K]

Tail-correction energy:
=======================
	Block[ 0]          -36.00683 [K]
	Block[ 1]          -36.24317 [K]
	Block[ 2]          -36.30134 [K]
	Block[ 3]          -36.40396 [K]
	Block[ 4]          -36.21472 [K]
	------------------------------------------------------------------------------
	Average            -36.23400 [K] +/-            0.18149 [K]

Distance-constraints energy:
=======================
	Block[ 0]            0.00000 [K]
	Block[ 1]            0.00000 [K]
	Block[ 2]            0.00000 [K]
	Block[ 3]            0.00000 [K]
	Block[ 4]            0.00000 [K]
	------------------------------------------------------------------------------
	Average              0.00000 [K] +/-            0.00000 [K]

Angle-constraints energy:
=======================
	Block[ 0]            0.00000 [K]
	Block[ 1]            0.00000 [K]
	Block[ 2]            0.00000 [K]
	Block[ 3]            0.00000 [K]
	Block[ 4]            0.00000 [K]
	------------------------------------------------------------------------------
	Average              0.00000 [K] +/-            0.00000 [K]

Dihedral-constraints energy:
=======================
	Block[ 0]            0.00000 [K]
	Block[ 1]            0.00000 [K]
	Block[ 2]            0.00000 [K]
	Block[ 3]            0.00000 [K]
	Block[ 4]            0.00000 [K]
	------------------------------------------------------------------------------
	Average              0.00000 [K] +/-            0.00000 [K]

Inversion-bend constraints energy:
=======================
	Block[ 0]            0.00000 [K]
	Block[ 1]            0.00000 [K]
	Block[ 2]            0.00000 [K]
	Block[ 3]            0.00000 [K]
	Block[ 4]            0.00000 [K]
	------------------------------------------------------------------------------
	Average              0.00000 [K] +/-            0.00000 [K]

Out-of-plane-distance constraints energy:
=======================
	Block[ 0]            0.00000 [K]
	Block[ 1]            0.00000 [K]
	Block[ 2]            0.00000 [K]
	Block[ 3]            0.00000 [K]
	Block[ 4]            0.00000 [K]
	------------------------------------------------------------------------------
	Average              0.00000 [K] +/-            0.00000 [K]

Exclusion-constraints energy:
=======================
	Block[ 0]            0.00000 [K]
	Block[ 1]            0.00000 [K]
	Block[ 2]            0.00000 [K]
	Block[ 3]            0.00000 [K]
	Block[ 4]            0.00000 [K]
	------------------------------------------------------------------------------
	Average              0.00000 [K] +/-            0.00000 [K]

Total energy:
=============
	Block[ 0]       289426.92581 [K]
	Block[ 1]       290093.68197 [K]
	Block[ 2]       289832.63450 [K]
	Block[ 3]       289906.47014 [K]
	Block[ 4]       290103.15266 [K]
	------------------------------------------------------------------------------
	Average         289872.57302 [K] +/-          341.91130 [K]

Number of molecules:
====================

Component 0 [propene]
-------------------------------------------------------------
	Block[ 0] 244.29360          [-]
	Block[ 1] 244.27720          [-]
	Block[ 2] 244.21440          [-]
	Block[ 3] 244.04920          [-]
	Block[ 4] 242.21640          [-]
	------------------------------------------------------------------------------
	Average loading absolute                            243.8101600000 +/-       1.1125599923 [-]
	Average loading absolute [molecules/unit cell]      243.8101600000 +/-       1.1125599923 [-]
	Average loading absolute [mol/kg framework]                           inf +/-                inf [-]
	Average loading absolute [milligram/gram framework]                   inf +/-                inf [-]
	Average loading absolute [cm^3 (STP)/gr framework]                    inf +/-                inf [-]
	Average loading absolute [cm^3 (STP)/cm^3 framework]         2.6887221723 +/-       0.0122692373 [-]

	Block[ 0] 244.29360          [-]
	Block[ 1] 244.27720          [-]
	Block[ 2] 244.21440          [-]
	Block[ 3] 244.04920          [-]
	Block[ 4] 242.21640          [-]
	------------------------------------------------------------------------------
	Average loading excess                            243.8101600000 +/-       1.1125599923 [-]
	Average loading excess [molecules/unit cell]      243.8101600000 +/-       1.1125599923 [-]
	Average loading excess [mol/kg framework]                             inf +/-                inf [-]
	Average loading excess [milligram/gram framework]                     inf +/-                inf [-]
	Average loading excess [cm^3 (STP)/gr framework]                      inf +/-                inf [-]
	Average loading excess [cm^3 (STP)/cm^3 framework]           2.6887221723 +/-       0.0122692373 [-]

Component 1 [ethene]
-------------------------------------------------------------
	Block[ 0] 77.85320           [-]
	Block[ 1] 77.86140           [-]
	Block[ 2] 77.89280           [-]
	Block[ 3] 77.97540           [-]
	Block[ 4] 78.89180           [-]
	------------------------------------------------------------------------------
	Average loading absolute                             78.0949200000 +/-       0.5562799962 [-]
	Average loading absolute [molecules/unit cell]       78.0949200000 +/-       0.5562799962 [-]
	Average loading absolute [mol/kg framework]                           inf +/-                inf [-]
	Average loading absolute [milligram/gram framework]                   inf +/-                inf [-]
	Average loading absolute [cm^3 (STP)/gr framework]                    inf +/-                inf [-]
	Average loading absolute [cm^3 (STP)/cm^3 framework]         0.8612255656 +/-       0.0061346187 [-]

	Block[ 0] 77.85320           [-]
	Block[ 1] 77.86140           [-]
	Block[ 2] 77.89280           [-]
	Block[ 3] 77.97540           [-]
	Block[ 4] 78.89180           [-]
	------------------------------------------------------------------------------
	Average loading excess                             78.0949200000 +/-       0.5562799962 [-]
	Average loading excess [molecules/unit cell]       78.0949200000 +/-       0.5562799962 [-]
	Average loading excess [mol/kg framework]                             inf +/-                inf [-]
	Average loading excess [milligram/gram framework]                     inf +/-                inf [-]
	Average loading excess [cm^3 (STP)/gr framework]                      inf +/-                inf [-]
	Average loading excess [cm^3 (STP)/cm^3 framework]           0.8612255656 +/-       0.0061346187 [-]

Component 2 [cis-2-butene]
-------------------------------------------------------------
	Block[ 0] 30.74720           [-]
	Block[ 1] 30.35920           [-]
	Block[ 2] 30.09700           [-]
	Block[ 3] 30.59360           [-]
	Block[ 4] 30.76780           [-]
	------------------------------------------------------------------------------
	Average loading absolute                             30.5129600000 +/-       0.3527702266 [-]
	Average loading absolute [molecules/unit cell]       30.5129600000 +/-       0.3527702266 [-]
	Average loading absolute [mol/kg framework]                           inf +/-                inf [-]
	Average loading absolute [milligram/gram framework]                   inf +/-                inf [-]
	Average loading absolute [cm^3 (STP)/gr framework]                    inf +/-                inf [-]
	Average loading absolute [cm^3 (STP)/cm^3 framework]         0.3364948864 +/-       0.0038903265 [-]

	Block[ 0] 30.74720           [-]
	Block[ 1] 30.35920           [-]
	Block[ 2] 30.09700           [-]
	Block[ 3] 30.59360           [-]
	Block[ 4] 30.76780           [-]
	------------------------------------------------------------------------------
	Average loading excess                             30.5129600000 +/-       0.3527702266 [-]
	Average loading excess [molecules/unit cell]       30.5129600000 +/-       0.3527702266 [-]
	Average loading excess [mol/kg framework]                             inf +/-                inf [-]
	Average loading excess [milligram/gram framework]                     inf +/-                inf [-]
	Average loading excess [cm^3 (STP)/gr framework]                      inf +/-                inf [-]
	Average loading excess [cm^3 (STP)/cm^3 framework]           0.3364948864 +/-       0.0038903265 [-]

Component 3 [trans-2-butene]
-------------------------------------------------------------
	Block[ 0] 47.10600           [-]
	Block[ 1] 47.50220           [-]
	Block[ 2] 47.79580           [-]
	Block[ 3] 47.38180           [-]
	Block[ 4] 48.12400           [-]
	------------------------------------------------------------------------------
	Average loading absolute                             47.5819600000 +/-       0.4857994099 [-]
	Average loading absolute [molecules/unit cell]       47.5819600000 +/-       0.4857994099 [-]
	Average loading absolute [mol/kg framework]                           inf +/-                inf [-]
	Average loading absolute [milligram/gram framework]                   inf +/-                inf [-]
	Average loading absolute [cm^3 (STP)/gr framework]                    inf +/-                inf [-]
	Average loading absolute [cm^3 (STP)/cm^3 framework]         0.5247306792 +/-       0.0053573635 [-]

	Block[ 0] 47.10600           [-]
	Block[ 1] 47.50220           [-]
	Block[ 2] 47.79580           [-]
	Block[ 3] 47.38180           [-]
	Block[ 4] 48.12400           [-]
	------------------------------------------------------------------------------
	Average loading excess                             47.5819600000 +/-       0.4857994099 [-]
	Average loading excess [molecules/unit cell]       47.5819600000 +/-       0.4857994099 [-]
	Average loading excess [mol/kg framework]                             inf +/-                inf [-]
	Average loading excess [milligram/gram framework]                     inf +/-                inf [-]
	Average loading excess [cm^3 (STP)/gr framework]                      inf +/-                inf [-]
	Average loading excess [cm^3 (STP)/cm^3 framework]           0.5247306792 +/-       0.0053573635 [-]


Average Widom Rosenbluth factor:
================================
	Block[ 0] 0 [-]
	Block[ 1] 0 [-]
	Block[ 2] 0 [-]
	Block[ 3] 0 [-]
	Block[ 4] 0 [-]
	------------------------------------------------------------------------------
	[propene] Average Widom Rosenbluth-weight:   0 +/- 0.000000 [-]
	Block[ 0] 0 [-]
	Block[ 1] 0 [-]
	Block[ 2] 0 [-]
	Block[ 3] 0 [-]
	Block[ 4] 0 [-]
	------------------------------------------------------------------------------
	[ethene] Average Widom Rosenbluth-weight:   0 +/- 0.000000 [-]
	Block[ 0] 0 [-]
	Block[ 1] 0 [-]
	Block[ 2] 0 [-]
	Block[ 3] 0 [-]
	Block[ 4] 0 [-]
	------------------------------------------------------------------------------
	[cis-2-butene] Average Widom Rosenbluth-weight:   0 +/- 0.000000 [-]
	Block[ 0] 0 [-]
	Block[ 1] 0 [-]
	Block[ 2] 0 [-]
	Block[ 3] 0 [-]
	Block[ 4] 0 [-]
	------------------------------------------------------------------------------
	[trans-2-butene] Average Widom Rosenbluth-weight:   0 +/- 0.000000 [-]

Average Widom chemical potential:
=================================
	Block[ 0] 0 [-]
	Block[ 1] 0 [-]
	Block[ 2] 0 [-]
	Block[ 3] 0 [-]
	Block[ 4] 0 [-]
	------------------------------------------------------------------------------
	[propene] Average chemical potential:   0 +/- 0.000000 [K]
	Block[ 0] 0 [-]
	Block[ 1] 0 [-]
	Block[ 2] 0 [-]
	Block[ 3] 0 [-]
	Block[ 4] 0 [-]
	------------------------------------------------------------------------------
	[ethene] Average chemical potential:   0 +/- 0.000000 [K]
	Block[ 0] 0 [-]
	Block[ 1] 0 [-]
	Block[ 2] 0 [-]
	Block[ 3] 0 [-]
	Block[ 4] 0 [-]
	------------------------------------------------------------------------------
	[cis-2-butene] Average chemical potential:   0 +/- 0.000000 [K]
	Block[ 0] 0 [-]
	Block[ 1] 0 [-]
	Block[ 2] 0 [-]
	Block[ 3] 0 [-]
	Block[ 4] 0 [-]
	------------------------------------------------------------------------------
	[trans-2-butene] Average chemical potential:   0 +/- 0.000000 [K]

Average Widom Ideal-gas contribution:
=====================================
	Block[ 0] 0 [-]
	Block[ 1] 0 [-]
	Block[ 2] 0 [-]
	Block[ 3] 0 [-]
	Block[ 4] 0 [-]
	------------------------------------------------------------------------------
	[propene] Average Widom Ideal-gas chemical potential:   0 +/- 0.000000 [-]
	Block[ 0] 0 [-]
	Block[ 1] 0 [-]
	Block[ 2] 0 [-]
	Block[ 3] 0 [-]
	Block[ 4] 0 [-]
	------------------------------------------------------------------------------
	[ethene] Average Widom Ideal-gas chemical potential:   0 +/- 0.000000 [-]
	Block[ 0] 0 [-]
	Block[ 1] 0 [-]
	Block[ 2] 0 [-]
	Block[ 3] 0 [-]
	Block[ 4] 0 [-]
	------------------------------------------------------------------------------
	[cis-2-butene] Average Widom Ideal-gas chemical potential:   0 +/- 0.000000 [-]
	Block[ 0] 0 [-]
	Block[ 1] 0 [-]
	Block[ 2] 0 [-]
	Block[ 3] 0 [-]
	Block[ 4] 0 [-]
	------------------------------------------------------------------------------
	[trans-2-butene] Average Widom Ideal-gas chemical potential:   0 +/- 0.000000 [-]

Average Widom excess contribution:
==================================
	Block[ 0] 0 [-]
	Block[ 1] 0 [-]
	Block[ 2] 0 [-]
	Block[ 3] 0 [-]
	Block[ 4] 0 [-]
	------------------------------------------------------------------------------
	[propene] Average Widom excess chemical potential:   0 +/- 0.000000 [-]
	Block[ 0] 0 [-]
	Block[ 1] 0 [-]
	Block[ 2] 0 [-]
	Block[ 3] 0 [-]
	Block[ 4] 0 [-]
	------------------------------------------------------------------------------
	[ethene] Average Widom excess chemical potential:   0 +/- 0.000000 [-]
	Block[ 0] 0 [-]
	Block[ 1] 0 [-]
	Block[ 2] 0 [-]
	Block[ 3] 0 [-]
	Block[ 4] 0 [-]
	------------------------------------------------------------------------------
	[cis-2-butene] Average Widom excess chemical potential:   0 +/- 0.000000 [-]
	Block[ 0] 0 [-]
	Block[ 1] 0 [-]
	Block[ 2] 0 [-]
	Block[ 3] 0 [-]
	Block[ 4] 0 [-]
	------------------------------------------------------------------------------
	[trans-2-butene] Average Widom excess chemical potential:   0 +/- 0.000000 [-]

Average Gibbs Widom Rosenbluth factor:
======================================
	Block[ 0] 0 [-]
	Block[ 1] 0 [-]
	Block[ 2] 0 [-]
	Block[ 3] 0 [-]
	Block[ 4] 0 [-]
	------------------------------------------------------------------------------
	[propene] Average Gibbs Widom Rosenbluth-weight:   0 +/- 0.000000 [-]
	Block[ 0] 0 [-]
	Block[ 1] 0 [-]
	Block[ 2] 0 [-]
	Block[ 3] 0 [-]
	Block[ 4] 0 [-]
	------------------------------------------------------------------------------
	[ethene] Average Gibbs Widom Rosenbluth-weight:   0 +/- 0.000000 [-]
	Block[ 0] 0 [-]
	Block[ 1] 0 [-]
	Block[ 2] 0 [-]
	Block[ 3] 0 [-]
	Block[ 4] 0 [-]
	------------------------------------------------------------------------------
	[cis-2-butene] Average Gibbs Widom Rosenbluth-weight:   0 +/- 0.000000 [-]
	Block[ 0] 0 [-]
	Block[ 1] 0 [-]
	Block[ 2] 0 [-]
	Block[ 3] 0 [-]
	Block[ 4] 0 [-]
	------------------------------------------------------------------------------
	[trans-2-butene] Average Gibbs Widom Rosenbluth-weight:   0 +/- 0.000000 [-]

Average Gibbs Widom chemical potential:
=======================================
	Block[ 0] 0 [-]
	Block[ 1] 0 [-]
	Block[ 2] 0 [-]
	Block[ 3] 0 [-]
	Block[ 4] 0 [-]
	------------------------------------------------------------------------------
	[propene] Average Gibbs chemical potential:   0 +/- 0.000000 [K]
	Block[ 0] 0 [-]
	Block[ 1] 0 [-]
	Block[ 2] 0 [-]
	Block[ 3] 0 [-]
	Block[ 4] 0 [-]
	------------------------------------------------------------------------------
	[ethene] Average Gibbs chemical potential:   0 +/- 0.000000 [K]
	Block[ 0] 0 [-]
	Block[ 1] 0 [-]
	Block[ 2] 0 [-]
	Block[ 3] 0 [-]
	Block[ 4] 0 [-]
	------------------------------------------------------------------------------
	[cis-2-butene] Average Gibbs chemical potential:   0 +/- 0.000000 [K]
	Block[ 0] 0 [-]
	Block[ 1] 0 [-]
	Block[ 2] 0 [-]
	Block[ 3] 0 [-]
	Block[ 4] 0 [-]
	------------------------------------------------------------------------------
	[trans-2-butene] Average Gibbs chemical potential:   0 +/- 0.000000 [K]

Average Gibbs Widom Ideal-gas contribution:
===========================================
	Block[ 0] 0 [-]
	Block[ 1] 0 [-]
	Block[ 2] 0 [-]
	Block[ 3] 0 [-]
	Block[ 4] 0 [-]
	------------------------------------------------------------------------------
	[propene] Average Gibbs Ideal-gas chemical potential:   0 +/- 0.000000 [-]
	Block[ 0] 0 [-]
	Block[ 1] 0 [-]
	Block[ 2] 0 [-]
	Block[ 3] 0 [-]
	Block[ 4] 0 [-]
	------------------------------------------------------------------------------
	[ethene] Average Gibbs Ideal-gas chemical potential:   0 +/- 0.000000 [-]
	Block[ 0] 0 [-]
	Block[ 1] 0 [-]
	Block[ 2] 0 [-]
	Block[ 3] 0 [-]
	Block[ 4] 0 [-]
	------------------------------------------------------------------------------
	[cis-2-butene] Average Gibbs Ideal-gas chemical potential:   0 +/- 0.000000 [-]
	Block[ 0] 0 [-]
	Block[ 1] 0 [-]
	Block[ 2] 0 [-]
	Block[ 3] 0 [-]
	Block[ 4] 0 [-]
	------------------------------------------------------------------------------
	[trans-2-butene] Average Gibbs Ideal-gas chemical potential:   0 +/- 0.000000 [-]

Average Gibbs Widom excess contribution:
===========================================
	Block[ 0] 0 [-]
	Block[ 1] 0 [-]
	Block[ 2] 0 [-]
	Block[ 3] 0 [-]
	Block[ 4] 0 [-]
	------------------------------------------------------------------------------
	[propene] Average Gibbs excess chemical potential:   0 +/- 0.000000 [-]
	Block[ 0] 0 [-]
	Block[ 1] 0 [-]
	Block[ 2] 0 [-]
	Block[ 3] 0 [-]
	Block[ 4] 0 [-]
	------------------------------------------------------------------------------
	[ethene] Average Gibbs excess chemical potential:   0 +/- 0.000000 [-]
	Block[ 0] 0 [-]
	Block[ 1] 0 [-]
	Block[ 2] 0 [-]
	Block[ 3] 0 [-]
	Block[ 4] 0 [-]
	------------------------------------------------------------------------------
	[cis-2-butene] Average Gibbs excess chemical potential:   0 +/- 0.000000 [-]
	Block[ 0] 0 [-]
	Block[ 1] 0 [-]
	Block[ 2] 0 [-]
	Block[ 3] 0 [-]
	Block[ 4] 0 [-]
	------------------------------------------------------------------------------
	[trans-2-butene] Average Gibbs excess chemical potential:   0 +/- 0.000000 [-]

Average Henry coefficient:
==========================
	Block[ 0] 0 [mol/kg/Pa]
	Block[ 1] 0 [mol/kg/Pa]
	Block[ 2] 0 [mol/kg/Pa]
	Block[ 3] 0 [mol/kg/Pa]
	Block[ 4] 0 [mol/kg/Pa]
	------------------------------------------------------------------------------
	[propene] Average Henry coefficient:  0 +/- 0 [mol/kg/Pa]
	Block[ 0] 0 [mol/kg/Pa]
	Block[ 1] 0 [mol/kg/Pa]
	Block[ 2] 0 [mol/kg/Pa]
	Block[ 3] 0 [mol/kg/Pa]
	Block[ 4] 0 [mol/kg/Pa]
	------------------------------------------------------------------------------
	[ethene] Average Henry coefficient:  0 +/- 0 [mol/kg/Pa]
	Block[ 0] 0 [mol/kg/Pa]
	Block[ 1] 0 [mol/kg/Pa]
	Block[ 2] 0 [mol/kg/Pa]
	Block[ 3] 0 [mol/kg/Pa]
	Block[ 4] 0 [mol/kg/Pa]
	------------------------------------------------------------------------------
	[cis-2-butene] Average Henry coefficient:  0 +/- 0 [mol/kg/Pa]
	Block[ 0] 0 [mol/kg/Pa]
	Block[ 1] 0 [mol/kg/Pa]
	Block[ 2] 0 [mol/kg/Pa]
	Block[ 3] 0 [mol/kg/Pa]
	Block[ 4] 0 [mol/kg/Pa]
	------------------------------------------------------------------------------
	[trans-2-butene] Average Henry coefficient:  0 +/- 0 [mol/kg/Pa]

Average adsorption energy <U_gh>_1-<U_h>_0 obtained from Widom-insertion:
(Note: the total heat of adsorption is dH=<U_gh>_1-<U_h>_0 - <U_g> - RT)
=========================================================================

Simulation finished,  0 warnings


Wed May 19 19:46:52 2021
Simulation finished on Wednesday, May 19.
The end time was 07:46 PM.

