Compiler and run-time data
===========================================================================
RASPA 2.0.45
Compiled as a 64-bits application
Compiler: gcc Apple LLVM 12.0.5 (clang-1205.0.22.9)
Compile Date = May 18 2021, Compile Time = 12:54:12

Wed May 19 10:01:54 2021
Simulation started on Wednesday, May 19.
The start time was 10:01 AM.

Cpu data:    x86_64
Cpu Model:   MacPro7,1
Host name:   MacPro.local
OS release:  20.4.0
OS type:     Darwin
OS version:  20E232


Simulation
===========================================================================
Dimensions: 3
Random number seed: 1621411313
RASPA directory set to: /Users/dubbelda/RASPA/simulations/
String appended to output-files: 
Number of cycles: 1
Number of initializing cycles: 0
Number of equilibration cycles: 0
Print every: 1
Triclinic boundary condition applied
Timestep: 0.000500
	Degrees of freedom:                        1272
	Translational Degrees of freedom:          1272
	Rotational Degrees of freedom:             0
	Degrees of freedom Framework:              1272


Mutual consistent basic set of units:
======================================
Unit of temperature: Kelvin
Unit of length:      1e-10 [m]
Unit of time:        1e-12 [s]
Unit of mass:        1.66054e-27 [kg]
Unit of charge:      1.60218e-19 [C/particle]

Derived units and their conversion factors:
===========================================
Unit of energy:              1.66054e-23 [J]
Unit of force:               1.66054e-13 [N]
Unit of pressure:            1.66054e+07 [Pa]
Unit of velocity:            100 [m/s]
Unit of acceleration:        1e-08 [m^2/s]
Unit of diffusion:           1e-08 [m^2/s]
Unit of dipole moment:       1.60218e-29 [C.m]
Unit of electric potential:  0.000103643 [V]
Unit of electric field:      1.03643e+06 [V]
Unit of polarizability:      1.54587e-35 [-]
Unit of Coulomb potential:   167101.0800066561  [K]
Unit of dielectric constant: 0.0000154587       [s^2 C^2/(kg m^3)]
Unit of wave vectors:        5.3088374589       [cm^1]
Boltzmann constant:          0.8314464919       [-]

Internal conversion factors:
===========================================
Energy to Kelvin:                                    1.2027242847
FH correction factor                                 2.0211930949
Heat capacity conversion factor:                    10.0000088723
From Debye to internal units:                        4.8032067991
Isothermal compressibility conversion factor:        0.0000000602

Energy conversion factors:
===========================================
From mdyne/A to kcal/mol/A^2:           143.933
From mdyne/A to kj/mol/A^2:             602.214
From mdyne/A to K/A^2:                  72429.7
From mdyne A/rad^2 to kcal/mol/deg^2:   0.0438444


Properties computed
===========================================================================
Movies: yes
	Movie snapshots are appended to file every 1 cycles
Radial Distribution Function: no
Number of molecules GCMC histogram: no
Histogram of the molecule positions: no
Free energy profiles: no
Pore Size Distribution Function: no
End-to-end distance: no
Histogram of the energy of the system: no
Compute thermodynamic factors: no
Framework spacing histograms: no
Residence times histograms: no
Distance histograms: no
Bend Angle histograms: no
Dihedral angle histograms: no
Angle between planes histograms: no
Molecule properties: no
Infra-red spectra: no
Mean-squared displacement using modified order-N algorithm: no
Velocity-autocorrelation function modified order-N algorithm: no
Rotational velocity-autocorrelation function modified order-N algorithm: no
Molecular orientation-autocorrelation function modified order-N algorithm: no
Bond orientation-autocorrelation function modified order-N algorithm: no
Mean-squared displacement (conventional algorithm): no
Velocity-autocorrelation function (conventional algorithm): no
3D density grid for adsorbates: no
Compute cation an/or adsorption sites: no
dcTST snapshots: no
Compute pressure and stress: no


VTK
===========================================================================
VTK fractional-range position framework atoms: [-0.001000,1.001000] [-0.001000,1.001000] [-0.001000,1.001000]
VTK fractional-range position framework bonds: [-0.151000,1.151000] [-0.151000,1.151000] [-0.151000,1.151000]
VTK fractional-range com-position adsorbate molecules: [-0.101000,1.101000] [-0.101000,1.101000] [-0.101000,1.101000]
VTK fractional-range com-position cation molecules: [-0.101000,1.101000] [-0.101000,1.101000] [-0.101000,1.101000]
	3D free energy grid made for the full simulation-cell


Thermo/Baro-stat NHC parameters
===========================================================================
External temperature: 298 [K]
Beta: 0.00403598 [energy unit]
External Pressure: 0 [Pa]


Thermostat chain-length: 3
Timescale parameter for thermostat: 0.150000 [ps]
Barostat chain-length:   3
Timescale parameter for barostat:   0.150000 [ps]

Number of Yoshida-Suzuki decomposition steps: 5
Number of respa steps: 5


Method and settings for electrostatics
===============================================================================
Dielectric constant of the medium : 1.000000
Charge from charge-equilibration: no
Ewald summation is used (exact solution of a periodic system)
Relative precision                : 1e-10
Alpha convergence parameter       : 0.363526
kvec (x,y,z)                      : 13 13 13


CFC-RXMC parameters
===========================================================================
Number of reactions: 0


Rattle parameters
===========================================================================
Distance constraint type: r^2-r^2_0
Bend angle constraint type: theta-theta_0
Dihedral angle constraint type: phi-phi_0
Inversion-bend angle constraint type: chi-chi_0
Out-of-plane distance constraint type: r-r_0


Spectra parameters
===========================================================================
Compute normal modes: no


Minimization parameters
===========================================================================
Generalized coordinates are: Cartesian center-of-mass, elements of the orientational matrix p1,p2,p3 and strain
Potential derivatives are evaluated: analytically
Translation of the system is removed from the generalized Hessian: no
Rotation of the system is removed from the generalized Hessian: no
Maximum step-length: 0.3
Convergence factor: 1
Maximum number of minimization steps: 1000
Use gradients in the line-minimizations: yes
RMS gradient tolerance: 1e-06
Maximum gradient tolerance: 1e-06

Distance constraints: 0
Angle constraints: 0
Dihedral constraints: 0

Improper dihedral constraints: 0

Inversion-bend constraints: 0

Out-of-plane constraints: 0

Harmonic distance constraints: 0
Harmonic angle constraints: 0
Harmonic dihedral constraints: 0

Dihedral mid-point measurements: 0

Number of fixed framework atoms: 0  (active: 424)
fixed atom-list: 
Number of active framework atoms: 424  (fixed: 0)
active atom-list: 

Fixed adsorbate atoms:  
Fixed adsorbate groups (center-of-mass):  
Fixed adsorbate groups (orientation):  

Fixed cation atoms:  
Fixed cation groups (center-of-mass):  
Fixed cation groups (orientation):  


dcTST parameters
===========================================================================
Free energy profiles computed: no
Free energy profiles written every 5000 cycles
Free energy mapping: mapped to a,b,c-coordinates
BarrierPosition:       0.0000000000       0.0000000000       0.0000000000
BarrierNormal:         0.0000000000       0.0000000000       0.0000000000
Start with a molecule on top of the barrier: no
Maximum distance to barrier (e.g. distance to minumum free energy):       0.0000000000 [A]
Maximum trajectory time:      10.0000000000 [ps]
Each configuration is used with 5 different initial velocities


Cbmc parameters
===========================================================================
Biasing method: using only the VDW part
Number of trial positions:                                       10
Number of trial positions (reinsertion):                         10
Number of trial positions (partial reinsertion):                 10
Number of trial positions (identity-change):                     10
Number of trial positions (Gibbs particle transfer):             10
Number of trial positions (insertion/deletion):                  10
Number of trial positions (Widom insertion):                     10
Number of trial positions coupled Torsion-selection:             100
Number of trial positions first bead:                            10
Number of trial positions first bead (reinsertion):              10
Number of trial positions first bead (partial reinsertion):      10
Number of trial positions first bead (identity-change):          10
Number of trial positions first bead (Gibbs particle transfer):  10
Number of trial positions first bead (insertion/deletion):       10
Number of trial positions first bead (Widom insertion):          10
Number of trial moves per open bead:                             150
Target acceptance ratio small-mc scheme:                         0.400000
Energy overlap criteria:                                         1e+07
Minimal Rosenbluth factor:                                       1e-150


Pseudo atoms: 21
===========================================================================
Pseudo Atom[   0] Name UNIT     Oxidation:          Element: H    pdb-name: H    Scat. Types:   1   1 Mass=1.000000000  B-factor:0.000   
                 Charge=1.000000000          Polarization=0.000000000  [A^3] (considered a charged atom and no polarization)  Interactions: yes
                 Anisotropic factor:    0.000 [-] (Absolute), Radius:    1.000 [A], Framework-atom:  no
Pseudo Atom[   1] Name Zn1      Oxidation: +0       Element: Zn   pdb-name: Zn   Scat. Types:  31  30 Mass=65.370000000 B-factor:1.000   
                 Charge=1.275000000          Polarization=0.000000000  [A^3] (considered a charged atom and no polarization)  Interactions: yes
                 Anisotropic factor:    0.000 [-] (Relative), Radius:    1.600 [A], Framework-atom: yes (charge from pseudo-atoms file)
Pseudo Atom[   2] Name O1       Oxidation: +0       Element: O    pdb-name: O    Scat. Types:   9   8 Mass=15.999400000 B-factor:1.000   
                 Charge=-1.500000000         Polarization=0.000000000  [A^3] (considered a charged atom and no polarization)  Interactions: yes
                 Anisotropic factor:    0.000 [-] (Relative), Radius:    0.680 [A], Framework-atom: yes (charge from pseudo-atoms file)
Pseudo Atom[   3] Name O2       Oxidation: +0       Element: O    pdb-name: O    Scat. Types:   9   8 Mass=15.999400000 B-factor:1.000   
                 Charge=-0.600000000         Polarization=0.000000000  [A^3] (considered a charged atom and no polarization)  Interactions: yes
                 Anisotropic factor:    0.000 [-] (Relative), Radius:    0.680 [A], Framework-atom: yes (charge from pseudo-atoms file)
Pseudo Atom[   4] Name C1       Oxidation: +0       Element: C    pdb-name: C    Scat. Types:   7   6 Mass=12.010700000 B-factor:1.000   
                 Charge=0.475000000          Polarization=0.000000000  [A^3] (considered a charged atom and no polarization)  Interactions: yes
                 Anisotropic factor:    0.000 [-] (Relative), Radius:    0.720 [A], Framework-atom: yes (charge from pseudo-atoms file)
Pseudo Atom[   5] Name C2       Oxidation: +0       Element: C    pdb-name: C    Scat. Types:   7   6 Mass=12.010700000 B-factor:1.000   
                 Charge=0.125000000          Polarization=0.000000000  [A^3] (considered a charged atom and no polarization)  Interactions: yes
                 Anisotropic factor:    0.000 [-] (Relative), Radius:    0.720 [A], Framework-atom: yes (charge from pseudo-atoms file)
Pseudo Atom[   6] Name C3       Oxidation: +0       Element: C    pdb-name: C    Scat. Types:   7   6 Mass=12.010700000 B-factor:1.000   
                 Charge=-0.150000000         Polarization=0.000000000  [A^3] (considered a charged atom and no polarization)  Interactions: yes
                 Anisotropic factor:    0.000 [-] (Relative), Radius:    0.720 [A], Framework-atom: yes (charge from pseudo-atoms file)
Pseudo Atom[   7] Name H1       Oxidation: +0       Element: H    pdb-name: H    Scat. Types:   1   1 Mass=1.007940000  B-factor:1.000   
                 Charge=0.150000000          Polarization=0.000000000  [A^3] (considered a charged atom and no polarization)  Interactions: yes
                 Anisotropic factor:    0.000 [-] (Relative), Radius:    0.320 [A], Framework-atom: yes (charge from pseudo-atoms file)
Pseudo Atom[   8] Name He       Oxidation: +0       Element: He   pdb-name: He   Scat. Types:   3   2 Mass=4.002602000  B-factor:1.000   
                 Charge=0.000000000          Polarization=0.000000000  [A^3] (considered a chargeless atom and no polarization)  Interactions: yes
                 Anisotropic factor:    0.000 [-] (Relative), Radius:    1.000 [A], Framework-atom:  no
Pseudo Atom[   9] Name C_co2    Oxidation: +0       Element: C    pdb-name: C    Scat. Types:   7   6 Mass=12.000000000 B-factor:1.000   
                 Charge=0.651200000          Polarization=0.000000000  [A^3] (considered a charged atom and no polarization)  Interactions: yes
                 Anisotropic factor:    0.000 [-] (Relative), Radius:    0.720 [A], Framework-atom:  no
Pseudo Atom[  10] Name O_co2    Oxidation: +0       Element: O    pdb-name: O    Scat. Types:   9   8 Mass=15.999400000 B-factor:1.000   
                 Charge=-0.325600000         Polarization=0.000000000  [A^3] (considered a charged atom and no polarization)  Interactions: yes
                 Anisotropic factor:    0.000 [-] (Relative), Radius:    0.680 [A], Framework-atom:  no
Pseudo Atom[  11] Name O_o2     Oxidation: +0       Element: O    pdb-name: O    Scat. Types:   9   8 Mass=15.999400000 B-factor:1.000   
                 Charge=-0.112000000         Polarization=0.000000000  [A^3] (considered a charged atom and no polarization)  Interactions: yes
                 Anisotropic factor:    0.000 [-] (Relative), Radius:    0.700 [A], Framework-atom:  no
Pseudo Atom[  12] Name O_com    Oxidation: +0       Element: -    pdb-name: O    Scat. Types:   0   8 Mass=0.000000000  B-factor:1.000   
                 Charge=0.224000000          Polarization=0.000000000  [A^3] (considered a charged atom and no polarization)  Interactions: yes
                 Anisotropic factor:    0.000 [-] (Relative), Radius:    0.700 [A], Framework-atom:  no
Pseudo Atom[  13] Name N_n2     Oxidation: +0       Element: N    pdb-name: N    Scat. Types:   8   7 Mass=14.006740000 B-factor:1.000   
                 Charge=-0.405000000         Polarization=0.000000000  [A^3] (considered a charged atom and no polarization)  Interactions: yes
                 Anisotropic factor:    0.000 [-] (Relative), Radius:    0.700 [A], Framework-atom:  no
Pseudo Atom[  14] Name N_com    Oxidation: +0       Element: -    pdb-name: N    Scat. Types:   0   7 Mass=0.000000000  B-factor:1.000   
                 Charge=0.810000000          Polarization=0.000000000  [A^3] (considered a charged atom and no polarization)  Interactions: yes
                 Anisotropic factor:    0.000 [-] (Relative), Radius:    0.700 [A], Framework-atom:  no
Pseudo Atom[  15] Name Ar       Oxidation: +0       Element: Ar   pdb-name: Ar   Scat. Types:  19  18 Mass=39.948000000 B-factor:1.000   
                 Charge=0.000000000          Polarization=0.000000000  [A^3] (considered a chargeless atom and no polarization)  Interactions: yes
                 Anisotropic factor:    0.000 [-] (Relative), Radius:    0.700 [A], Framework-atom:  no
Pseudo Atom[  16] Name CH4      Oxidation: +0       Element: C    pdb-name: C    Scat. Types:   7   6 Mass=16.042460000 B-factor:1.000   
                 Charge=0.000000000          Polarization=0.000000000  [A^3] (considered a chargeless atom and no polarization)  Interactions: yes
                 Anisotropic factor:    0.000 [-] (Relative), Radius:    1.000 [A], Framework-atom:  no
Pseudo Atom[  17] Name CH3      Oxidation: +0       Element: C    pdb-name: C    Scat. Types:   7   6 Mass=15.034520000 B-factor:1.000   
                 Charge=0.000000000          Polarization=0.000000000  [A^3] (considered a chargeless atom and no polarization)  Interactions: yes
                 Anisotropic factor:    0.000 [-] (Relative), Radius:    1.000 [A], Framework-atom:  no
Pseudo Atom[  18] Name CH2      Oxidation: +0       Element: C    pdb-name: C    Scat. Types:   7   6 Mass=14.026580000 B-factor:1.000   
                 Charge=0.000000000          Polarization=0.000000000  [A^3] (considered a chargeless atom and no polarization)  Interactions: yes
                 Anisotropic factor:    0.000 [-] (Relative), Radius:    1.000 [A], Framework-atom:  no
Pseudo Atom[  19] Name CH       Oxidation: +0       Element: C    pdb-name: C    Scat. Types:   7   6 Mass=13.018640000 B-factor:1.000   
                 Charge=0.000000000          Polarization=0.000000000  [A^3] (considered a chargeless atom and no polarization)  Interactions: yes
                 Anisotropic factor:    0.000 [-] (Relative), Radius:    1.000 [A], Framework-atom:  no
Pseudo Atom[  20] Name C        Oxidation: +0       Element: C    pdb-name: C    Scat. Types:   7   6 Mass=12.000000000 B-factor:1.000   
                 Charge=0.000000000          Polarization=0.000000000  [A^3] (considered a chargeless atom and no polarization)  Interactions: yes
                 Anisotropic factor:    0.000 [-] (Relative), Radius:    1.000 [A], Framework-atom:  no


Forcefield: Dubbeldam2007FlexibleIRMOF-1
===========================================================================
Minimal distance: 1
CutOff VDW : 12.000000 (144.000000)
CutOff VDW switching on: 10.800000 (116.640000)
CutOff charge-charge : 12.000000 (144.000000)
CutOff charge-charge switching on: 7.800000 (60.840000)
CutOff charge-bonddipole : 12.000000 (144.000000)
CutOff charge-bondipole switching on: 8.400000 (70.560000)
CutOff bonddipole-bonddipole : 12.000000 (144.000000)
CutOff bonddipole-bondipole switching on: 9.000000 (81.000000)
Polarization is neglected
All potentials are shifted to zero at the Cutoff

General mixing rule: Lorentz-Berthelot mixing rules are used FIRST for cross terms
0 cross terms are overwritten using the individual mixing rules from the file 'force_field_mixing_rules.def'
and then 0 terms are overwritten using the specific interactions from the file 'force_field.def'

The force field and all the interactions:
    Zn1 -     Zn1 [LENNARD_JONES] p_0/k_B:   0.42000 [K], p_1: 2.70000 [A], shift/k_B:  -0.00021795 [K], tailcorrection: no
    Zn1 -      O1 [LENNARD_JONES] p_0/k_B:  17.14643 [K], p_1: 2.84000 [A], shift/k_B:  -0.01204980 [K], tailcorrection: no
    Zn1 -      O2 [LENNARD_JONES] p_0/k_B:   5.44151 [K], p_1: 2.90500 [A], shift/k_B:  -0.00438007 [K], tailcorrection: no
    Zn1 -      C1 [LENNARD_JONES] p_0/k_B:   4.44297 [K], p_1: 3.22000 [A], shift/k_B:  -0.00663161 [K], tailcorrection: no
    Zn1 -      C2 [LENNARD_JONES] p_0/k_B:   4.48344 [K], p_1: 3.08500 [A], shift/k_B:  -0.00517594 [K], tailcorrection: no
    Zn1 -      C3 [LENNARD_JONES] p_0/k_B:   4.48344 [K], p_1: 3.08500 [A], shift/k_B:  -0.00517594 [K], tailcorrection: no
    Zn1 -      H1 [LENNARD_JONES] p_0/k_B:   1.79248 [K], p_1: 2.77500 [A], shift/k_B:  -0.00109633 [K], tailcorrection: no
    Zn1 -      He [LENNARD_JONES] p_0/k_B:   2.13963 [K], p_1: 2.67000 [A], shift/k_B:  -0.00103831 [K], tailcorrection: no
    Zn1 -   C_co2 [LENNARD_JONES] p_0/k_B:   3.54568 [K], p_1: 2.72250 [A], shift/k_B:  -0.00193384 [K], tailcorrection: no
    Zn1 -   O_co2 [LENNARD_JONES] p_0/k_B:   5.99848 [K], p_1: 2.85850 [A], shift/k_B:  -0.00438292 [K], tailcorrection: no
    Zn1 -   O_com [ZERO_POTENTIAL]
    Zn1 -    N_n2 [LENNARD_JONES] p_0/k_B:   4.01063 [K], p_1: 3.00300 [A], shift/k_B:  -0.00393922 [K], tailcorrection: no
    Zn1 -   N_com [ZERO_POTENTIAL]
    Zn1 -      Ar [LENNARD_JONES] p_0/k_B:   7.21868 [K], p_1: 3.04000 [A], shift/k_B:  -0.00763057 [K], tailcorrection: no
    Zn1 -     CH4 [LENNARD_JONES] p_0/k_B:   8.15904 [K], p_1: 3.21000 [A], shift/k_B:  -0.01195316 [K], tailcorrection: no
    Zn1 -     CH3 [LENNARD_JONES] p_0/k_B:   6.73498 [K], p_1: 3.23000 [A], shift/k_B:  -0.01024139 [K], tailcorrection: no
    Zn1 -     CH2 [LENNARD_JONES] p_0/k_B:   4.84974 [K], p_1: 3.33000 [A], shift/k_B:  -0.00885438 [K], tailcorrection: no
    Zn1 -      CH [LENNARD_JONES] p_0/k_B:   2.67208 [K], p_1: 3.68500 [A], shift/k_B:  -0.00895534 [K], tailcorrection: no
    Zn1 -       C [LENNARD_JONES] p_0/k_B:   0.57966 [K], p_1: 4.54000 [A], shift/k_B:  -0.00677956 [K], tailcorrection: no
     O1 -      O1 [LENNARD_JONES] p_0/k_B: 700.00000 [K], p_1: 2.98000 [A], shift/k_B:  -0.65654768 [K], tailcorrection: no
     O1 -      O2 [LENNARD_JONES] p_0/k_B: 222.14860 [K], p_1: 3.04500 [A], shift/k_B:  -0.23715043 [K], tailcorrection: no
     O1 -      C1 [LENNARD_JONES] p_0/k_B: 181.38357 [K], p_1: 3.36000 [A], shift/k_B:  -0.34945946 [K], tailcorrection: no
     O1 -      C2 [LENNARD_JONES] p_0/k_B: 183.03552 [K], p_1: 3.22500 [A], shift/k_B:  -0.27575445 [K], tailcorrection: no
     O1 -      C3 [LENNARD_JONES] p_0/k_B: 183.03552 [K], p_1: 3.22500 [A], shift/k_B:  -0.27575445 [K], tailcorrection: no
     O1 -      H1 [LENNARD_JONES] p_0/k_B:  73.17787 [K], p_1: 2.91500 [A], shift/k_B:  -0.06013044 [K], tailcorrection: no
     O1 -      He [LENNARD_JONES] p_0/k_B:  87.34987 [K], p_1: 2.81000 [A], shift/k_B:  -0.05759716 [K], tailcorrection: no
     O1 -   C_co2 [LENNARD_JONES] p_0/k_B: 144.75186 [K], p_1: 2.86250 [A], shift/k_B:  -0.10665706 [K], tailcorrection: no
     O1 -   O_co2 [LENNARD_JONES] p_0/k_B: 244.88712 [K], p_1: 2.99850 [A], shift/k_B:  -0.23837299 [K], tailcorrection: no
     O1 -   O_com [ZERO_POTENTIAL]
     O1 -    N_n2 [LENNARD_JONES] p_0/k_B: 163.73332 [K], p_1: 3.14300 [A], shift/k_B:  -0.21136625 [K], tailcorrection: no
     O1 -   N_com [ZERO_POTENTIAL]
     O1 -      Ar [LENNARD_JONES] p_0/k_B: 294.70154 [K], p_1: 3.18000 [A], shift/k_B:  -0.40810058 [K], tailcorrection: no
     O1 -     CH4 [LENNARD_JONES] p_0/k_B: 333.09158 [K], p_1: 3.35000 [A], shift/k_B:  -0.63037559 [K], tailcorrection: no
     O1 -     CH3 [LENNARD_JONES] p_0/k_B: 274.95454 [K], p_1: 3.37000 [A], shift/k_B:  -0.53926188 [K], tailcorrection: no
     O1 -     CH2 [LENNARD_JONES] p_0/k_B: 197.98990 [K], p_1: 3.47000 [A], shift/k_B:  -0.46274146 [K], tailcorrection: no
     O1 -      CH [LENNARD_JONES] p_0/k_B: 109.08712 [K], p_1: 3.82500 [A], shift/k_B:  -0.45717123 [K], tailcorrection: no
     O1 -       C [LENNARD_JONES] p_0/k_B:  23.66432 [K], p_1: 4.68000 [A], shift/k_B:  -0.33190270 [K], tailcorrection: no
     O2 -      O2 [LENNARD_JONES] p_0/k_B:  70.50000 [K], p_1: 3.11000 [A], shift/k_B:  -0.08542645 [K], tailcorrection: no
     O2 -      C1 [LENNARD_JONES] p_0/k_B:  57.56301 [K], p_1: 3.42500 [A], shift/k_B:  -0.12440694 [K], tailcorrection: no
     O2 -      C2 [LENNARD_JONES] p_0/k_B:  58.08726 [K], p_1: 3.29000 [A], shift/k_B:  -0.09863801 [K], tailcorrection: no
     O2 -      C3 [LENNARD_JONES] p_0/k_B:  58.08726 [K], p_1: 3.29000 [A], shift/k_B:  -0.09863801 [K], tailcorrection: no
     O2 -      H1 [LENNARD_JONES] p_0/k_B:  23.22337 [K], p_1: 2.98000 [A], shift/k_B:  -0.02178179 [K], tailcorrection: no
     O2 -      He [LENNARD_JONES] p_0/k_B:  27.72093 [K], p_1: 2.87500 [A], shift/k_B:  -0.02096647 [K], tailcorrection: no
     O2 -   C_co2 [LENNARD_JONES] p_0/k_B:  45.93775 [K], p_1: 2.92750 [A], shift/k_B:  -0.03872862 [K], tailcorrection: no
     O2 -   O_co2 [LENNARD_JONES] p_0/k_B:  77.71619 [K], p_1: 3.06350 [A], shift/k_B:  -0.08603419 [K], tailcorrection: no
     O2 -   O_com [ZERO_POTENTIAL]
     O2 -    N_n2 [LENNARD_JONES] p_0/k_B:  51.96161 [K], p_1: 3.20800 [A], shift/k_B:  -0.07584077 [K], tailcorrection: no
     O2 -   N_com [ZERO_POTENTIAL]
     O2 -      Ar [LENNARD_JONES] p_0/k_B:  93.52505 [K], p_1: 3.24500 [A], shift/k_B:  -0.14622405 [K], tailcorrection: no
     O2 -     CH4 [LENNARD_JONES] p_0/k_B: 105.70833 [K], p_1: 3.41500 [A], shift/k_B:  -0.22448907 [K], tailcorrection: no
     O2 -     CH3 [LENNARD_JONES] p_0/k_B:  87.25824 [K], p_1: 3.43500 [A], shift/k_B:  -0.19191124 [K], tailcorrection: no
     O2 -     CH2 [LENNARD_JONES] p_0/k_B:  62.83311 [K], p_1: 3.53500 [A], shift/k_B:  -0.16413972 [K], tailcorrection: no
     O2 -      CH [LENNARD_JONES] p_0/k_B:  34.61936 [K], p_1: 3.89000 [A], shift/k_B:  -0.16050364 [K], tailcorrection: no
     O2 -       C [LENNARD_JONES] p_0/k_B:   7.50999 [K], p_1: 4.74500 [A], shift/k_B:  -0.11438423 [K], tailcorrection: no
     C1 -      C1 [LENNARD_JONES] p_0/k_B:  47.00000 [K], p_1: 3.74000 [A], shift/k_B:  -0.17214791 [K], tailcorrection: no
     C1 -      C2 [LENNARD_JONES] p_0/k_B:  47.42805 [K], p_1: 3.60500 [A], shift/k_B:  -0.13935419 [K], tailcorrection: no
     C1 -      C3 [LENNARD_JONES] p_0/k_B:  47.42805 [K], p_1: 3.60500 [A], shift/k_B:  -0.13935419 [K], tailcorrection: no
     C1 -      H1 [LENNARD_JONES] p_0/k_B:  18.96180 [K], p_1: 3.29500 [A], shift/k_B:  -0.03249365 [K], tailcorrection: no
     C1 -      He [LENNARD_JONES] p_0/k_B:  22.63405 [K], p_1: 3.19000 [A], shift/k_B:  -0.03193931 [K], tailcorrection: no
     C1 -   C_co2 [LENNARD_JONES] p_0/k_B:  37.50801 [K], p_1: 3.24250 [A], shift/k_B:  -0.05837238 [K], tailcorrection: no
     C1 -   O_co2 [LENNARD_JONES] p_0/k_B:  63.45500 [K], p_1: 3.37850 [A], shift/k_B:  -0.12634718 [K], tailcorrection: no
     C1 -   O_com [ZERO_POTENTIAL]
     C1 -    N_n2 [LENNARD_JONES] p_0/k_B:  42.42648 [K], p_1: 3.52300 [A], shift/k_B:  -0.10859434 [K], tailcorrection: no
     C1 -   N_com [ZERO_POTENTIAL]
     C1 -      Ar [LENNARD_JONES] p_0/k_B:  76.36288 [K], p_1: 3.56000 [A], shift/k_B:  -0.20809356 [K], tailcorrection: no
     C1 -     CH4 [LENNARD_JONES] p_0/k_B:  86.31049 [K], p_1: 3.73000 [A], shift/k_B:  -0.31109798 [K], tailcorrection: no
     C1 -     CH3 [LENNARD_JONES] p_0/k_B:  71.24605 [K], p_1: 3.75000 [A], shift/k_B:  -0.26516504 [K], tailcorrection: no
     C1 -     CH2 [LENNARD_JONES] p_0/k_B:  51.30302 [K], p_1: 3.85000 [A], shift/k_B:  -0.22356609 [K], tailcorrection: no
     C1 -      CH [LENNARD_JONES] p_0/k_B:  28.26659 [K], p_1: 4.20500 [A], shift/k_B:  -0.20894746 [K], tailcorrection: no
     C1 -       C [LENNARD_JONES] p_0/k_B:   6.13188 [K], p_1: 5.06000 [A], shift/k_B:  -0.13709495 [K], tailcorrection: no
     C2 -      C2 [LENNARD_JONES] p_0/k_B:  47.86000 [K], p_1: 3.47000 [A], shift/k_B:  -0.11185826 [K], tailcorrection: no
     C2 -      C3 [LENNARD_JONES] p_0/k_B:  47.86000 [K], p_1: 3.47000 [A], shift/k_B:  -0.11185826 [K], tailcorrection: no
     C2 -      H1 [LENNARD_JONES] p_0/k_B:  19.13450 [K], p_1: 3.16000 [A], shift/k_B:  -0.02551334 [K], tailcorrection: no
     C2 -      He [LENNARD_JONES] p_0/k_B:  22.84018 [K], p_1: 3.05500 [A], shift/k_B:  -0.02486687 [K], tailcorrection: no
     C2 -   C_co2 [LENNARD_JONES] p_0/k_B:  37.84962 [K], p_1: 3.10750 [A], shift/k_B:  -0.04564254 [K], tailcorrection: no
     C2 -   O_co2 [LENNARD_JONES] p_0/k_B:  64.03291 [K], p_1: 3.24350 [A], shift/k_B:  -0.09983661 [K], tailcorrection: no
     C2 -   O_com [ZERO_POTENTIAL]
     C2 -    N_n2 [LENNARD_JONES] p_0/k_B:  42.81288 [K], p_1: 3.38800 [A], shift/k_B:  -0.08669365 [K], tailcorrection: no
     C2 -   N_com [ZERO_POTENTIAL]
     C2 -      Ar [LENNARD_JONES] p_0/k_B:  77.05836 [K], p_1: 3.42500 [A], shift/k_B:  -0.16654088 [K], tailcorrection: no
     C2 -     CH4 [LENNARD_JONES] p_0/k_B:  87.09656 [K], p_1: 3.59500 [A], shift/k_B:  -0.25168236 [K], tailcorrection: no
     C2 -     CH3 [LENNARD_JONES] p_0/k_B:  71.89492 [K], p_1: 3.61500 [A], shift/k_B:  -0.21478098 [K], tailcorrection: no
     C2 -     CH2 [LENNARD_JONES] p_0/k_B:  51.77026 [K], p_1: 3.71500 [A], shift/k_B:  -0.18214753 [K], tailcorrection: no
     C2 -      CH [LENNARD_JONES] p_0/k_B:  28.52402 [K], p_1: 4.07000 [A], shift/k_B:  -0.17341561 [K], tailcorrection: no
     C2 -       C [LENNARD_JONES] p_0/k_B:   6.18773 [K], p_1: 4.92500 [A], shift/k_B:  -0.11772284 [K], tailcorrection: no
     C3 -      C3 [LENNARD_JONES] p_0/k_B:  47.86000 [K], p_1: 3.47000 [A], shift/k_B:  -0.11185826 [K], tailcorrection: no
     C3 -      H1 [LENNARD_JONES] p_0/k_B:  19.13450 [K], p_1: 3.16000 [A], shift/k_B:  -0.02551334 [K], tailcorrection: no
     C3 -      He [LENNARD_JONES] p_0/k_B:  22.84018 [K], p_1: 3.05500 [A], shift/k_B:  -0.02486687 [K], tailcorrection: no
     C3 -   C_co2 [LENNARD_JONES] p_0/k_B:  37.84962 [K], p_1: 3.10750 [A], shift/k_B:  -0.04564254 [K], tailcorrection: no
     C3 -   O_co2 [LENNARD_JONES] p_0/k_B:  64.03291 [K], p_1: 3.24350 [A], shift/k_B:  -0.09983661 [K], tailcorrection: no
     C3 -   O_com [ZERO_POTENTIAL]
     C3 -    N_n2 [LENNARD_JONES] p_0/k_B:  42.81288 [K], p_1: 3.38800 [A], shift/k_B:  -0.08669365 [K], tailcorrection: no
     C3 -   N_com [ZERO_POTENTIAL]
     C3 -      Ar [LENNARD_JONES] p_0/k_B:  77.05836 [K], p_1: 3.42500 [A], shift/k_B:  -0.16654088 [K], tailcorrection: no
     C3 -     CH4 [LENNARD_JONES] p_0/k_B:  87.09656 [K], p_1: 3.59500 [A], shift/k_B:  -0.25168236 [K], tailcorrection: no
     C3 -     CH3 [LENNARD_JONES] p_0/k_B:  71.89492 [K], p_1: 3.61500 [A], shift/k_B:  -0.21478098 [K], tailcorrection: no
     C3 -     CH2 [LENNARD_JONES] p_0/k_B:  51.77026 [K], p_1: 3.71500 [A], shift/k_B:  -0.18214753 [K], tailcorrection: no
     C3 -      CH [LENNARD_JONES] p_0/k_B:  28.52402 [K], p_1: 4.07000 [A], shift/k_B:  -0.17341561 [K], tailcorrection: no
     C3 -       C [LENNARD_JONES] p_0/k_B:   6.18773 [K], p_1: 4.92500 [A], shift/k_B:  -0.11772284 [K], tailcorrection: no
     H1 -      H1 [LENNARD_JONES] p_0/k_B:   7.65000 [K], p_1: 2.85000 [A], shift/k_B:  -0.00549067 [K], tailcorrection: no
     H1 -      He [LENNARD_JONES] p_0/k_B:   9.13154 [K], p_1: 2.74500 [A], shift/k_B:  -0.00523249 [K], tailcorrection: no
     H1 -   C_co2 [LENNARD_JONES] p_0/k_B:  15.13233 [K], p_1: 2.79750 [A], shift/k_B:  -0.00971470 [K], tailcorrection: no
     H1 -   O_co2 [LENNARD_JONES] p_0/k_B:  25.60045 [K], p_1: 2.93350 [A], shift/k_B:  -0.02184963 [K], tailcorrection: no
     H1 -   O_com [ZERO_POTENTIAL]
     H1 -    N_n2 [LENNARD_JONES] p_0/k_B:  17.11665 [K], p_1: 3.07800 [A], shift/k_B:  -0.01949303 [K], tailcorrection: no
     H1 -   N_com [ZERO_POTENTIAL]
     H1 -      Ar [LENNARD_JONES] p_0/k_B:  30.80804 [K], p_1: 3.11500 [A], shift/k_B:  -0.03769225 [K], tailcorrection: no
     H1 -     CH4 [LENNARD_JONES] p_0/k_B:  34.82133 [K], p_1: 3.28500 [A], shift/k_B:  -0.05859321 [K], tailcorrection: no
     H1 -     CH3 [LENNARD_JONES] p_0/k_B:  28.74369 [K], p_1: 3.30500 [A], shift/k_B:  -0.05015963 [K], tailcorrection: no
     H1 -     CH2 [LENNARD_JONES] p_0/k_B:  20.69783 [K], p_1: 3.40500 [A], shift/k_B:  -0.04318901 [K], tailcorrection: no
     H1 -      CH [LENNARD_JONES] p_0/k_B:  11.40395 [K], p_1: 3.76000 [A], shift/k_B:  -0.04312644 [K], tailcorrection: no
     H1 -       C [LENNARD_JONES] p_0/k_B:   2.47386 [K], p_1: 4.61500 [A], shift/k_B:  -0.03191325 [K], tailcorrection: no
     He -      He [LENNARD_JONES] p_0/k_B:  10.90000 [K], p_1: 2.64000 [A], shift/k_B:  -0.00494280 [K], tailcorrection: no
     He -   C_co2 [LENNARD_JONES] p_0/k_B:  18.06294 [K], p_1: 2.69250 [A], shift/k_B:  -0.00921806 [K], tailcorrection: no
     He -   O_co2 [LENNARD_JONES] p_0/k_B:  30.55837 [K], p_1: 2.82850 [A], shift/k_B:  -0.02095875 [K], tailcorrection: no
     He -   O_com [ZERO_POTENTIAL]
     He -    N_n2 [LENNARD_JONES] p_0/k_B:  20.43155 [K], p_1: 2.97300 [A], shift/k_B:  -0.01889482 [K], tailcorrection: no
     He -   N_com [ZERO_POTENTIAL]
     He -      Ar [LENNARD_JONES] p_0/k_B:  36.77449 [K], p_1: 3.01000 [A], shift/k_B:  -0.03662773 [K], tailcorrection: no
     He -     CH4 [LENNARD_JONES] p_0/k_B:  41.56501 [K], p_1: 3.18000 [A], shift/k_B:  -0.05755893 [K], tailcorrection: no
     He -     CH3 [LENNARD_JONES] p_0/k_B:  34.31035 [K], p_1: 3.20000 [A], shift/k_B:  -0.04933343 [K], tailcorrection: no
     He -     CH2 [LENNARD_JONES] p_0/k_B:  24.70627 [K], p_1: 3.30000 [A], shift/k_B:  -0.04272436 [K], tailcorrection: no
     He -      CH [LENNARD_JONES] p_0/k_B:  13.61249 [K], p_1: 3.65500 [A], shift/k_B:  -0.04343978 [K], tailcorrection: no
     He -       C [LENNARD_JONES] p_0/k_B:   2.95296 [K], p_1: 4.51000 [A], shift/k_B:  -0.03319436 [K], tailcorrection: no
  C_co2 -   C_co2 [LENNARD_JONES] p_0/k_B:  29.93300 [K], p_1: 2.74500 [A], shift/k_B:  -0.01715199 [K], tailcorrection: no
  C_co2 -   O_co2 [LENNARD_JONES] p_0/k_B:  50.63981 [K], p_1: 2.88100 [A], shift/k_B:  -0.03878296 [K], tailcorrection: no
  C_co2 -   O_com [ZERO_POTENTIAL]
  C_co2 -    N_n2 [LENNARD_JONES] p_0/k_B:  33.85815 [K], p_1: 3.02550 [A], shift/k_B:  -0.03477820 [K], tailcorrection: no
  C_co2 -   N_com [ZERO_POTENTIAL]
  C_co2 -      Ar [LENNARD_JONES] p_0/k_B:  60.94085 [K], p_1: 3.06250 [A], shift/k_B:  -0.06733139 [K], tailcorrection: no
  C_co2 -     CH4 [LENNARD_JONES] p_0/k_B:  68.87946 [K], p_1: 3.23250 [A], shift/k_B:  -0.10522708 [K], tailcorrection: no
  C_co2 -     CH3 [LENNARD_JONES] p_0/k_B:  56.85740 [K], p_1: 3.25250 [A], shift/k_B:  -0.09013451 [K], tailcorrection: no
  C_co2 -     CH2 [LENNARD_JONES] p_0/k_B:  40.94201 [K], p_1: 3.35250 [A], shift/k_B:  -0.07783014 [K], tailcorrection: no
  C_co2 -      CH [LENNARD_JONES] p_0/k_B:  22.55795 [K], p_1: 3.70750 [A], shift/k_B:  -0.07841175 [K], tailcorrection: no
  C_co2 -       C [LENNARD_JONES] p_0/k_B:   4.89351 [K], p_1: 4.56250 [A], shift/k_B:  -0.05895165 [K], tailcorrection: no
  O_co2 -   O_co2 [LENNARD_JONES] p_0/k_B:  85.67100 [K], p_1: 3.01700 [A], shift/k_B:  -0.08652638 [K], tailcorrection: no
  O_co2 -   O_com [ZERO_POTENTIAL]
  O_co2 -    N_n2 [LENNARD_JONES] p_0/k_B:  57.28026 [K], p_1: 3.16150 [A], shift/k_B:  -0.07659340 [K], tailcorrection: no
  O_co2 -   N_com [ZERO_POTENTIAL]
  O_co2 -      Ar [LENNARD_JONES] p_0/k_B: 103.09802 [K], p_1: 3.19850 [A], shift/k_B:  -0.14782408 [K], tailcorrection: no
  O_co2 -     CH4 [LENNARD_JONES] p_0/k_B: 116.52834 [K], p_1: 3.36850 [A], shift/k_B:  -0.22793491 [K], tailcorrection: no
  O_co2 -     CH3 [LENNARD_JONES] p_0/k_B:  96.18975 [K], p_1: 3.38850 [A], shift/k_B:  -0.19495125 [K], tailcorrection: no
  O_co2 -     CH2 [LENNARD_JONES] p_0/k_B:  69.26454 [K], p_1: 3.48850 [A], shift/k_B:  -0.16712968 [K], tailcorrection: no
  O_co2 -      CH [LENNARD_JONES] p_0/k_B:  38.16290 [K], p_1: 3.84350 [A], shift/k_B:  -0.16462890 [K], tailcorrection: no
  O_co2 -       C [LENNARD_JONES] p_0/k_B:   8.27870 [K], p_1: 4.69850 [A], shift/k_B:  -0.11888367 [K], tailcorrection: no
   O_o2 -   O_com [ZERO_POTENTIAL]
   O_o2 -   N_com [ZERO_POTENTIAL]
  O_com -   O_com [ZERO_POTENTIAL]
  O_com -    N_n2 [ZERO_POTENTIAL]
  O_com -   N_com [ZERO_POTENTIAL]
  O_com -      Ar [ZERO_POTENTIAL]
  O_com -     CH4 [ZERO_POTENTIAL]
  O_com -     CH3 [ZERO_POTENTIAL]
  O_com -     CH2 [ZERO_POTENTIAL]
  O_com -      CH [ZERO_POTENTIAL]
  O_com -       C [ZERO_POTENTIAL]
   N_n2 -    N_n2 [LENNARD_JONES] p_0/k_B:  38.29800 [K], p_1: 3.30600 [A], shift/k_B:  -0.06695388 [K], tailcorrection: no
   N_n2 -   N_com [ZERO_POTENTIAL]
   N_n2 -      Ar [LENNARD_JONES] p_0/k_B:  68.93209 [K], p_1: 3.34300 [A], shift/k_B:  -0.12882767 [K], tailcorrection: no
   N_n2 -     CH4 [LENNARD_JONES] p_0/k_B:  77.91170 [K], p_1: 3.51300 [A], shift/k_B:  -0.19605171 [K], tailcorrection: no
   N_n2 -     CH3 [LENNARD_JONES] p_0/k_B:  64.31317 [K], p_1: 3.53300 [A], shift/k_B:  -0.16743696 [K], tailcorrection: no
   N_n2 -     CH2 [LENNARD_JONES] p_0/k_B:  46.31078 [K], p_1: 3.63300 [A], shift/k_B:  -0.14253201 [K], tailcorrection: no
   N_n2 -      CH [LENNARD_JONES] p_0/k_B:  25.51599 [K], p_1: 3.98800 [A], shift/k_B:  -0.13731894 [K], tailcorrection: no
   N_n2 -       C [LENNARD_JONES] p_0/k_B:   5.53520 [K], p_1: 4.84300 [A], shift/k_B:  -0.09526024 [K], tailcorrection: no
  N_com -   N_com [ZERO_POTENTIAL]
  N_com -      Ar [ZERO_POTENTIAL]
  N_com -     CH4 [ZERO_POTENTIAL]
  N_com -     CH3 [ZERO_POTENTIAL]
  N_com -     CH2 [ZERO_POTENTIAL]
  N_com -      CH [ZERO_POTENTIAL]
  N_com -       C [ZERO_POTENTIAL]
     Ar -      Ar [LENNARD_JONES] p_0/k_B: 124.07000 [K], p_1: 3.38000 [A], shift/k_B:  -0.24769804 [K], tailcorrection: no
     Ar -     CH4 [LENNARD_JONES] p_0/k_B: 140.23229 [K], p_1: 3.55000 [A], shift/k_B:  -0.37575039 [K], tailcorrection: no
     Ar -     CH3 [LENNARD_JONES] p_0/k_B: 115.75647 [K], p_1: 3.57000 [A], shift/k_B:  -0.32079374 [K], tailcorrection: no
     Ar -     CH2 [LENNARD_JONES] p_0/k_B:  83.35418 [K], p_1: 3.67000 [A], shift/k_B:  -0.27260937 [K], tailcorrection: no
     Ar -      CH [LENNARD_JONES] p_0/k_B:  45.92592 [K], p_1: 4.02500 [A], shift/k_B:  -0.26122023 [K], tailcorrection: no
     Ar -       C [LENNARD_JONES] p_0/k_B:   9.96273 [K], p_1: 4.88000 [A], shift/k_B:  -0.17943247 [K], tailcorrection: no
    CH4 -     CH4 [LENNARD_JONES] p_0/k_B: 158.50000 [K], p_1: 3.72000 [A], shift/k_B:  -0.56217796 [K], tailcorrection: no
    CH4 -     CH3 [LENNARD_JONES] p_0/k_B: 130.83577 [K], p_1: 3.74000 [A], shift/k_B:  -0.47921501 [K], tailcorrection: no
    CH4 -     CH2 [LENNARD_JONES] p_0/k_B:  94.21253 [K], p_1: 3.84000 [A], shift/k_B:  -0.40420524 [K], tailcorrection: no
    CH4 -      CH [LENNARD_JONES] p_0/k_B:  51.90857 [K], p_1: 4.19500 [A], shift/k_B:  -0.37827707 [K], tailcorrection: no
    CH4 -       C [LENNARD_JONES] p_0/k_B:  11.26055 [K], p_1: 5.05000 [A], shift/k_B:  -0.24880626 [K], tailcorrection: no
    CH3 -     CH3 [LENNARD_JONES] p_0/k_B: 108.00000 [K], p_1: 3.76000 [A], shift/k_B:  -0.40842485 [K], tailcorrection: no
    CH3 -     CH2 [LENNARD_JONES] p_0/k_B:  77.76889 [K], p_1: 3.86000 [A], shift/k_B:  -0.34420794 [K], tailcorrection: no
    CH3 -      CH [LENNARD_JONES] p_0/k_B:  42.84857 [K], p_1: 4.21500 [A], shift/k_B:  -0.32127575 [K], tailcorrection: no
    CH3 -       C [LENNARD_JONES] p_0/k_B:   9.29516 [K], p_1: 5.07000 [A], shift/k_B:  -0.21028090 [K], tailcorrection: no
    CH2 -     CH2 [LENNARD_JONES] p_0/k_B:  56.00000 [K], p_1: 3.96000 [A], shift/k_B:  -0.28891522 [K], tailcorrection: no
    CH2 -      CH [LENNARD_JONES] p_0/k_B:  30.85450 [K], p_1: 4.31500 [A], shift/k_B:  -0.26621710 [K], tailcorrection: no
    CH2 -       C [LENNARD_JONES] p_0/k_B:   6.69328 [K], p_1: 5.17000 [A], shift/k_B:  -0.17012512 [K], tailcorrection: no
     CH -      CH [LENNARD_JONES] p_0/k_B:  17.00000 [K], p_1: 4.67000 [A], shift/k_B:  -0.23540268 [K], tailcorrection: no
     CH -       C [LENNARD_JONES] p_0/k_B:   3.68782 [K], p_1: 5.52500 [A], shift/k_B:  -0.13918063 [K], tailcorrection: no
      C -       C [LENNARD_JONES] p_0/k_B:   0.80000 [K], p_1: 6.38000 [A], shift/k_B:  -0.07064236 [K], tailcorrection: no


MoleculeDefinitions:
===========================================================================
No components defined in 'simulation.input'


Framework Status
===========================================================================
Lowenstein's rule obeyed by framework
	Framework is modelled as: flexible using the model of Dubbeldam2007FlexibleIRMOF-1
	==================================================================================

	Number of Bonds definitions: 5
	--------------------------------------------
	Bond interaction between [C3-H1] using bond-type: HARMONIC_BOND (96 bonds)
	  args: 2   arg[0]=366001.131364 arg[1]=0.950000 
	Bond interaction between [C3-C3] using bond-type: HARMONIC_BOND (48 bonds)
	  args: 2   arg[0]=483413.910475 arg[1]=1.360000 
	Bond interaction between [C2-C3] using bond-type: HARMONIC_BOND (96 bonds)
	  args: 2   arg[0]=483413.910475 arg[1]=1.360000 
	Bond interaction between [C1-C2] using bond-type: HARMONIC_BOND (48 bonds)
	  args: 2   arg[0]=353750.919316 arg[1]=1.420000 
	Bond interaction between [O2-C1] using bond-type: HARMONIC_BOND (96 bonds)
	  args: 2   arg[0]=543840.649284 arg[1]=1.250000 

	Number of Bend definitions: 7
	--------------------------------------------
	Bend interaction between [C1-C2-C3] using bend-type: HARMONIC_BEND (96 bends)
	  args: 2   arg[0]=34926.554321 arg[1]=120.000000 
	Bend interaction between [C2-C3-H1] using bend-type: HARMONIC_BEND (96 bends)
	  args: 2   arg[0]=37263.155599 arg[1]=120.000000 
	Bend interaction between [C3-C3-H1] using bend-type: HARMONIC_BEND (96 bends)
	  args: 2   arg[0]=37263.155599 arg[1]=120.000000 
	Bend interaction between [C3-C2-C3] using bend-type: HARMONIC_BEND (48 bends)
	  args: 2   arg[0]=90640.108214 arg[1]=120.000000 
	Bend interaction between [C3-C3-C2] using bend-type: HARMONIC_BEND (96 bends)
	  args: 2   arg[0]=90640.108214 arg[1]=120.000000 
	Bend interaction between [O2-C1-O2] using bend-type: HARMONIC_BEND (48 bends)
	  args: 2   arg[0]=135960.162321 arg[1]=130.000000 
	Bend interaction between [O2-C1-C2] using bend-type: HARMONIC_BEND (96 bends)
	  args: 2   arg[0]=54882.484812 arg[1]=115.000000 

	Number of Torsion definitions: 8
	--------------------------------------------
	Torsion interaction between [O2-C1-C2-C3] using torsion-type:TRAPPE_DIHEDRAL (192 torsions)
	  args: 4   arg[0]=0.000000     arg[1]=0.000000     arg[2]=1258.890392  arg[3]=0.000000      VDW-scaling: 0.000000      q-scaling: 0.000000    
	Torsion interaction between [C1-C2-C3-H1] using torsion-type:TRAPPE_DIHEDRAL (96 torsions)
	  args: 4   arg[0]=0.000000     arg[1]=0.000000     arg[2]=1510.668470  arg[3]=0.000000      VDW-scaling: 0.000000      q-scaling: 0.000000    
	Torsion interaction between [C1-C2-C3-C3] using torsion-type:TRAPPE_DIHEDRAL (96 torsions)
	  args: 4   arg[0]=0.000000     arg[1]=0.000000     arg[2]=1510.668470  arg[3]=0.000000      VDW-scaling: 0.000000      q-scaling: 0.000000    
	Torsion interaction between [H1-C3-C3-H1] using torsion-type:TRAPPE_DIHEDRAL (48 torsions)
	  args: 4   arg[0]=0.000000     arg[1]=0.000000     arg[2]=1510.668470  arg[3]=0.000000      VDW-scaling: 0.000000      q-scaling: 0.000000    
	Torsion interaction between [C2-C3-C3-H1] using torsion-type:TRAPPE_DIHEDRAL (96 torsions)
	  args: 4   arg[0]=0.000000     arg[1]=0.000000     arg[2]=1510.668470  arg[3]=0.000000      VDW-scaling: 0.000000      q-scaling: 0.000000    
	Torsion interaction between [C2-C3-C3-C2] using torsion-type:TRAPPE_DIHEDRAL (48 torsions)
	  args: 4   arg[0]=0.000000     arg[1]=0.000000     arg[2]=1510.668470  arg[3]=0.000000      VDW-scaling: 0.000000      q-scaling: 0.000000    
	Torsion interaction between [H1-C3-C2-C3] using torsion-type:TRAPPE_DIHEDRAL (96 torsions)
	  args: 4   arg[0]=0.000000     arg[1]=0.000000     arg[2]=1510.668470  arg[3]=0.000000      VDW-scaling: 0.000000      q-scaling: 0.000000    
	Torsion interaction between [C3-C2-C3-C3] using torsion-type:TRAPPE_DIHEDRAL (96 torsions)
	  args: 4   arg[0]=0.000000     arg[1]=0.000000     arg[2]=1510.668470  arg[3]=0.000000      VDW-scaling: 0.000000      q-scaling: 0.000000    

	Number of Improper Torsion definitions: 3
	--------------------------------------------
	Improper Torsion interaction between [C2-C1-O2-O2] using improper torsion-type:TRAPPE_IMPROPER_DIHEDRAL (48 improper torsions)
	  args: 4   arg[0]=0.000000 arg[1]=0.000000 arg[2]=5035.561567 arg[3]=0.000000 
	Improper Torsion interaction between [C3-C2-C3-C1] using improper torsion-type:TRAPPE_IMPROPER_DIHEDRAL (48 improper torsions)
	  args: 4   arg[0]=0.000000 arg[1]=0.000000 arg[2]=5035.561567 arg[3]=0.000000 
	Improper Torsion interaction between [C2-C3-C3-H1] using improper torsion-type:TRAPPE_IMPROPER_DIHEDRAL (96 improper torsions)
	  args: 4   arg[0]=0.000000 arg[1]=0.000000 arg[2]=186.315778 arg[3]=0.000000 


	Number of core/shells:                           0
	Number of bonds:                                 384
	Number of bond-dipoles:                          0
	Number of bends:                                 576
	Number of Urey-Bradleys:                         0
	Number of Inversion bends:                       0
	Number of Torsions:                              768
	Number of Improper Torsions:                     192
	Number of Out-of-planes:                         0
	Number of bond-bond cross terms:                 0
	Number of bond-bend cross terms:                 0
	Number of bend-bend cross terms:                 0
	Number of stretch-torsion cross terms:           0
	Number of bend-torsion cross terms:              0

	Number of charges:                               424
	Number of bonddipoles:                           0

	Number of Intra VDW:                             88716
	Number of Intra Coulomb charge-charge:           88716
	Number of Intra Coulomb charge-bonddipole:       0
	Number of Intra Coulomb bonddipoles:             0
	Number of excluded Intra VDW:                    960
	Number of excluded intra charge-charge:          960
	Number of excluded intra charge-bonddipole:      0
	Number of excluded intra bonddipole-bonddipole:  0


	Number of 1-2 intra-framework pairs: 560
	Number of 1-3 intra-framework pairs: 1392
	Number of 1-4 intra-framework pairs: 3600
	Number of 1-2,1-3 intra-framework pairs: 1952
	Number of 1-2,1-3,1-4 intra-framework pairs: 5552
	Bond interactions are removed (excluded from VDW and Coulomb interactions)
	Bend interactions are removed (excluded from VDW and Coulomb interactions)
	Torsion interactions are *included* in the VDW and Coulomb interactions
	Remove12NeighboursFromVDWInteraction no
	Remove13NeighboursFromVDWInteraction no
	Remove14NeighboursFromVDWInteraction no
	Remove12NeighboursFromChargeChargeInteraction no
	Remove13NeighboursFromChargeChargeInteraction no
	Remove14NeighboursFromChargeChargeInteraction no
	Remove11NeighboursFromChargeBondDipoleInteraction no
	Remove12NeighboursFromChargeBondDipoleInteraction no
	Remove13NeighboursFromChargeBondDipoleInteraction no
	Remove14NeighboursFromChargeBondDipoleInteraction no
	Remove12NeighboursFromBondDipoleBondDipoleInteraction no
	Remove13NeighboursFromBondDipoleBondDipoleInteraction no
	Remove14NeighboursFromBondDipoleBondDipoleInteraction no
	InternalFrameworkLennardJonesInteractions yes


System Properties
===========================================================================
Unit cell size: 25.832000 25.832000 25.832000
Cell angles (radians)  alpha: 1.570796 beta: 1.570796 gamma: 1.570796
Cell angles (degrees)  alpha: 90.000000 beta: 90.000000 gamma: 90.000000
Number of unitcells [a]: 1
Number of unitcells [b]: 1
Number of unitcells [c]: 1

TRICLINIC Boundary conditions: alpha!=90 or beta!=90 or gamma!=90

Cartesian axis A is collinear with crystallographic axis a
Cartesian axis B is collinear with (axb)xA
Cartesian axis C is collinear with (axb)

lengths of cell vectors:
 25.83200  25.83200  25.83200
cosines of cell angles:
  0.00000   0.00000   0.00000
perpendicular cell widths:
 25.83200  25.83200  25.83200
volume of the cell: 17237.492730368002 (A^3)

Orthogonalization matrix Box
Transforms fractional coordinates abc into orthonormal Cartesian coordinates xyz
Deorthogonalization matrix InverseBox
Transforms orthonormal Cartesian coordinates xyz into fractional coordinates xyz

Box[0]:
	   25.832000000000     0.000000000000     0.000000000000
	    0.000000000000    25.832000000000     0.000000000000
	    0.000000000000     0.000000000000    25.832000000000

Inverse box[0]:
	    0.038711675441    -0.000000000000    -0.000000000000
	    0.000000000000     0.038711675441    -0.000000000000
	    0.000000000000     0.000000000000     0.038711675441


Unitcell box[0]:
	   25.832000000000     0.000000000000     0.000000000000
	    0.000000000000    25.832000000000     0.000000000000
	    0.000000000000     0.000000000000    25.832000000000

Unitcell inverse box[0]:
	    0.038711675441    -0.000000000000    -0.000000000000
	    0.000000000000     0.038711675441    -0.000000000000
	    0.000000000000     0.000000000000     0.038711675441

lengths of cell vectors (inverse box):
  0.03871   0.03871   0.03871
cosines of cell angles (inverse box):
 -0.00000  -0.00000  -0.00000
perpendicular cell widths (inverse):
  0.03871   0.03871   0.03871
volume of the cell: 17237.492730368002 (A^3)

No replicas are used
Framework is simulated as 'flexible'
Number of framework atoms: 424
Number of framework atoms in the unit cell: 424
Framework Mass:  6158.594239999981 [g/mol]
Framework Density:   593.275622947865 [kg/m^3]    1.6855572036336 [cm^3/g]
Helium void fraction:    0.00000000
Available pore volume:    0.00000000 [A^3]    0.00000000 [cm^3/g]
Conversion factor from molecule/unit cell -> kmol/m^3: 0.096333, kmol/m^3 accesible pore volume: inf

Number Of Frameworks (per system): 1
----------------------------------------------------------------------
Framework name: IRMOF-1
Citation:
	author name:        'M. Eddaoudi, J. Kim, N. Rosi, D. Vodak, J. Wachter, M. O. Keeffe, and O.M. Yaghi'
	title:              'Systematic design of pore size and functionality in isoreticular MOFs and their application in methane storage'
	journal abbrev.:    'Science'
	journal volume:     295
	first page:         469
	last page:          472
	year:               2002
Space group: 225
	Identifier: 523
	short international Hermann-Mauguin symbol: F m -3 m
	long international Hermann-Mauguin symbol: F 4/m -3 2/m
	Hall symbol: -F 4 2 3
	Number of lattice translations: 4 [ (0,0,0) (0,0.5,0.5) (0.5,0,0.5) (0.5,0.5,0) ]
	acentric/centric: acentric
	chiral: yes
	enantiomorphic: no
	number of operators: 192
		'x,y,z'
		'-x,-y,z'
		'-x,y,-z'
		'x,-y,-z'
		'z,x,y'
		'z,-x,-y'
		'-z,-x,y'
		'-z,x,-y'
		'y,z,x'
		'-y,z,-x'
		'y,-z,-x'
		'-y,-z,x'
		'y,x,-z'
		'-y,-x,-z'
		'y,-x,z'
		'-y,x,z'
		'x,z,-y'
		'-x,z,y'
		'-x,-z,-y'
		'x,-z,y'
		'z,y,-x'
		'z,-y,x'
		'-z,y,x'
		'-z,-y,-x'
		'-x,-y,-z'
		'x,y,-z'
		'x,-y,z'
		'-x,y,z'
		'-z,-x,-y'
		'-z,x,y'
		'z,x,-y'
		'z,-x,y'
		'-y,-z,-x'
		'y,-z,x'
		'-y,z,x'
		'y,z,-x'
		'-y,-x,z'
		'y,x,z'
		'-y,x,-z'
		'y,-x,-z'
		'-x,-z,y'
		'x,-z,-y'
		'x,z,y'
		'-x,z,-y'
		'-z,-y,x'
		'-z,y,-x'
		'z,-y,-x'
		'z,y,x'
		'x,y+1/2,z+1/2'
		'-x,-y+1/2,z+1/2'
		'-x,y+1/2,-z+1/2'
		'x,-y+1/2,-z+1/2'
		'z,x+1/2,y+1/2'
		'z,-x+1/2,-y+1/2'
		'-z,-x+1/2,y+1/2'
		'-z,x+1/2,-y+1/2'
		'y,z+1/2,x+1/2'
		'-y,z+1/2,-x+1/2'
		'y,-z+1/2,-x+1/2'
		'-y,-z+1/2,x+1/2'
		'y,x+1/2,-z+1/2'
		'-y,-x+1/2,-z+1/2'
		'y,-x+1/2,z+1/2'
		'-y,x+1/2,z+1/2'
		'x,z+1/2,-y+1/2'
		'-x,z+1/2,y+1/2'
		'-x,-z+1/2,-y+1/2'
		'x,-z+1/2,y+1/2'
		'z,y+1/2,-x+1/2'
		'z,-y+1/2,x+1/2'
		'-z,y+1/2,x+1/2'
		'-z,-y+1/2,-x+1/2'
		'-x,-y+1/2,-z+1/2'
		'x,y+1/2,-z+1/2'
		'x,-y+1/2,z+1/2'
		'-x,y+1/2,z+1/2'
		'-z,-x+1/2,-y+1/2'
		'-z,x+1/2,y+1/2'
		'z,x+1/2,-y+1/2'
		'z,-x+1/2,y+1/2'
		'-y,-z+1/2,-x+1/2'
		'y,-z+1/2,x+1/2'
		'-y,z+1/2,x+1/2'
		'y,z+1/2,-x+1/2'
		'-y,-x+1/2,z+1/2'
		'y,x+1/2,z+1/2'
		'-y,x+1/2,-z+1/2'
		'y,-x+1/2,-z+1/2'
		'-x,-z+1/2,y+1/2'
		'x,-z+1/2,-y+1/2'
		'x,z+1/2,y+1/2'
		'-x,z+1/2,-y+1/2'
		'-z,-y+1/2,x+1/2'
		'-z,y+1/2,-x+1/2'
		'z,-y+1/2,-x+1/2'
		'z,y+1/2,x+1/2'
		'x+1/2,y,z+1/2'
		'-x+1/2,-y,z+1/2'
		'-x+1/2,y,-z+1/2'
		'x+1/2,-y,-z+1/2'
		'z+1/2,x,y+1/2'
		'z+1/2,-x,-y+1/2'
		'-z+1/2,-x,y+1/2'
		'-z+1/2,x,-y+1/2'
		'y+1/2,z,x+1/2'
		'-y+1/2,z,-x+1/2'
		'y+1/2,-z,-x+1/2'
		'-y+1/2,-z,x+1/2'
		'y+1/2,x,-z+1/2'
		'-y+1/2,-x,-z+1/2'
		'y+1/2,-x,z+1/2'
		'-y+1/2,x,z+1/2'
		'x+1/2,z,-y+1/2'
		'-x+1/2,z,y+1/2'
		'-x+1/2,-z,-y+1/2'
		'x+1/2,-z,y+1/2'
		'z+1/2,y,-x+1/2'
		'z+1/2,-y,x+1/2'
		'-z+1/2,y,x+1/2'
		'-z+1/2,-y,-x+1/2'
		'-x+1/2,-y,-z+1/2'
		'x+1/2,y,-z+1/2'
		'x+1/2,-y,z+1/2'
		'-x+1/2,y,z+1/2'
		'-z+1/2,-x,-y+1/2'
		'-z+1/2,x,y+1/2'
		'z+1/2,x,-y+1/2'
		'z+1/2,-x,y+1/2'
		'-y+1/2,-z,-x+1/2'
		'y+1/2,-z,x+1/2'
		'-y+1/2,z,x+1/2'
		'y+1/2,z,-x+1/2'
		'-y+1/2,-x,z+1/2'
		'y+1/2,x,z+1/2'
		'-y+1/2,x,-z+1/2'
		'y+1/2,-x,-z+1/2'
		'-x+1/2,-z,y+1/2'
		'x+1/2,-z,-y+1/2'
		'x+1/2,z,y+1/2'
		'-x+1/2,z,-y+1/2'
		'-z+1/2,-y,x+1/2'
		'-z+1/2,y,-x+1/2'
		'z+1/2,-y,-x+1/2'
		'z+1/2,y,x+1/2'
		'x+1/2,y+1/2,z'
		'-x+1/2,-y+1/2,z'
		'-x+1/2,y+1/2,-z'
		'x+1/2,-y+1/2,-z'
		'z+1/2,x+1/2,y'
		'z+1/2,-x+1/2,-y'
		'-z+1/2,-x+1/2,y'
		'-z+1/2,x+1/2,-y'
		'y+1/2,z+1/2,x'
		'-y+1/2,z+1/2,-x'
		'y+1/2,-z+1/2,-x'
		'-y+1/2,-z+1/2,x'
		'y+1/2,x+1/2,-z'
		'-y+1/2,-x+1/2,-z'
		'y+1/2,-x+1/2,z'
		'-y+1/2,x+1/2,z'
		'x+1/2,z+1/2,-y'
		'-x+1/2,z+1/2,y'
		'-x+1/2,-z+1/2,-y'
		'x+1/2,-z+1/2,y'
		'z+1/2,y+1/2,-x'
		'z+1/2,-y+1/2,x'
		'-z+1/2,y+1/2,x'
		'-z+1/2,-y+1/2,-x'
		'-x+1/2,-y+1/2,-z'
		'x+1/2,y+1/2,-z'
		'x+1/2,-y+1/2,z'
		'-x+1/2,y+1/2,z'
		'-z+1/2,-x+1/2,-y'
		'-z+1/2,x+1/2,y'
		'z+1/2,x+1/2,-y'
		'z+1/2,-x+1/2,y'
		'-y+1/2,-z+1/2,-x'
		'y+1/2,-z+1/2,x'
		'-y+1/2,z+1/2,x'
		'y+1/2,z+1/2,-x'
		'-y+1/2,-x+1/2,z'
		'y+1/2,x+1/2,z'
		'-y+1/2,x+1/2,-z'
		'y+1/2,-x+1/2,-z'
		'-x+1/2,-z+1/2,y'
		'x+1/2,-z+1/2,-y'
		'x+1/2,z+1/2,y'
		'-x+1/2,z+1/2,-y'
		'-z+1/2,-y+1/2,x'
		'-z+1/2,y+1/2,-x'
		'z+1/2,-y+1/2,-x'
		'z+1/2,y+1/2,x'
Framework is simulated as 'flexible'
Shift: 0.000000 0.000000 0.000000
Number of framework atoms: 424
Number of asymmetric atoms: 7
Number of free framework atoms: 424
Number of fixed framework atoms: 0
Number of framework atoms in the unit cell: 424
Framework Mass:  6158.594239999981 [g/mol]
Framework Density:   593.275622947865 [kg/m^3]
Framework has net charge: 0.000000
         largest charge : 1.275000
         smallest charge: -1.500000


Current Atom Status
===========================================================================
Number of framework atoms        : 424
Number of cations molecules      : 0
Number of adsorbate molecules    : 0
Pseudo Atoms    0 [    UNIT]:    0 atoms
Pseudo Atoms    1 [     Zn1]:   32 atoms
Pseudo Atoms    2 [      O1]:    8 atoms
Pseudo Atoms    3 [      O2]:   96 atoms
Pseudo Atoms    4 [      C1]:   48 atoms
Pseudo Atoms    5 [      C2]:   48 atoms
Pseudo Atoms    6 [      C3]:   96 atoms
Pseudo Atoms    7 [      H1]:   96 atoms
Pseudo Atoms    8 [      He]:    0 atoms
Pseudo Atoms    9 [   C_co2]:    0 atoms
Pseudo Atoms   10 [   O_co2]:    0 atoms
Pseudo Atoms   11 [    O_o2]:    0 atoms
Pseudo Atoms   12 [   O_com]:    0 atoms
Pseudo Atoms   13 [    N_n2]:    0 atoms
Pseudo Atoms   14 [   N_com]:    0 atoms
Pseudo Atoms   15 [      Ar]:    0 atoms
Pseudo Atoms   16 [     CH4]:    0 atoms
Pseudo Atoms   17 [     CH3]:    0 atoms
Pseudo Atoms   18 [     CH2]:    0 atoms
Pseudo Atoms   19 [      CH]:    0 atoms
Pseudo Atoms   20 [       C]:    0 atoms


Current (initial full energy) Energy Status
===========================================================================

Internal energy:
Host stretch energy:                                       152014.44572182
Host UreyBradley energy:                                        0.00000000
Host bend energy:                                           13990.90293842
Host inversion-bend energy:                                     0.00000000
Host torsion energy:                                            0.00000000
Host improper torsion energy:                                   0.00000000
Host out-of-plane energy:                                       0.00000000
Host stretch/stretch energy:                                    0.00000000
Host bend/bend energy:                                          0.00000000
Host stretch/bend energy:                                       0.00000000
Host stretch/torsion energy:                                    0.00000000
Host bend/torsion energy:                                       0.00000000

Adsorbate stretch energy:                                       0.00000000
Adsorbate UreyBradley energy:                                   0.00000000
Adsorbate bend energy:                                          0.00000000
Adsorbate inversion-bend energy:                                0.00000000
Adsorbate torsion energy:                                       0.00000000
Adsorbate improper torsion energy:                              0.00000000
Adsorbate out-of-plane energy:                                  0.00000000
Adsorbate stretch/stretch energy:                               0.00000000
Adsorbate bend/bend energy:                                     0.00000000
Adsorbate stretch/bend energy:                                  0.00000000
Adsorbate stretch/torsion energy:                               0.00000000
Adsorbate bend/torsion energy:                                  0.00000000
Adsorbate intra VDW energy:                                     0.00000000
Adsorbate intra charge-charge Coulomb energy:                   0.00000000
Adsorbate intra charge-bonddipole Coulomb energy:               0.00000000
Adsorbate intra bonddipole-bonddipole Coulomb energy:           0.00000000

Cation stretch energy:                                          0.00000000
Cation UreyBradley energy:                                      0.00000000
Cation bend energy:                                             0.00000000
Cation inversion-bend energy:                                   0.00000000
Cation torsion energy:                                          0.00000000
Cation improper torsion energy:                                 0.00000000
Cation out-of-plane energy:                                     0.00000000
Cation stretch/stretch energy:                                  0.00000000
Cation bend/bend energy:                                        0.00000000
Cation stretch/bend energy:                                     0.00000000
Cation stretch/torsion energy:                                  0.00000000
Cation bend/torsion energy:                                     0.00000000
Cation intra VDW energy:                                        0.00000000
Cation intra charge-charge Coulomb energy:                      0.00000000
Cation intra charge-bonddipole Coulomb energy:                  0.00000000
Cation intra bonddipole-bonddipole Coulomb energy:              0.00000000

Host/Host energy:                                      -4376334.51648486
	Host/Host VDW energy:                                    783475.30680113
	Host/Host Coulomb energy:                              -5159809.82328600
	Host/Host charge-charge Real energy:                   -2668791.36601127
	Host/Host charge-charge Fourier energy:                -2491018.45727473
	Host/Host charge-bonddipole Real energy:                      0.00000000
	Host/Host charge-bonddipole Fourier energy:                   0.00000000
	Host/Host bondipole-bonddipole Real energy:                   0.00000000
	Host/Host bondipole-bonddipole Fourier energy:                0.00000000

Host/Adsorbate energy:                                        0.00000000
	Host/Adsorbate VDW energy:                                    0.00000000
	Host/Adsorbate Coulomb energy:                                0.00000000
	Host/Adsorbate charge-charge Real energy:                     0.00000000
	Host/Adsorbate charge-charge Fourier energy:                  0.00000000
	Host/Adsorbate charge-bonddipole Real energy:                 0.00000000
	Host/Adsorbate charge-bonddipole Fourier energy:              0.00000000
	Host/Adsorbate bondipole-bonddipole Real energy:              0.00000000
	Host/Adsorbate bondipole-bonddipole Fourier energy:           0.00000000

Host/Cation energy:                                           0.00000000
	Host/Cation VDW energy:                                       0.00000000
	Host/Cation Coulomb energy:                                   0.00000000
	Host/Cation charge-charge Real energy:                        0.00000000
	Host/Cation charge-charge Fourier energy:                     0.00000000
	Host/Cation charge-bonddipole Real energy:                    0.00000000
	Host/Cation charge-bonddipole Fourier energy:                 0.00000000
	Host/Cation bondipole-bonddipole Real energy:                 0.00000000
	Host/Cation bondipole-bonddipole Fourier energy:              0.00000000

Adsorbate/Adsorbate energy:                                        0.00000000
	Adsorbate/Adsorbate VDW energy:                                    0.00000000
	Adsorbate/Adsorbate Coulomb energy:                                0.00000000
	Adsorbate/Adsorbate charge-charge Real energy:                     0.00000000
	Adsorbate/Adsorbate charge-charge Fourier energy:                  0.00000000
	Adsorbate/Adsorbate charge-bonddipole Real energy:                 0.00000000
	Adsorbate/Adsorbate charge-bonddipole Fourier energy:              0.00000000
	Adsorbate/Adsorbate bondipole-bonddipole Real energy:              0.00000000
	Adsorbate/Adsorbate bondipole-bonddipole Fourier energy:           0.00000000

Adsorbate/Cation energy:                                           0.00000000
	Adsorbate/Cation VDW energy:                                       0.00000000
	Adsorbate/Cation Coulomb energy:                                   0.00000000
	Adsorbate/Cation charge-charge Real energy:                        0.00000000
	Adsorbate/Cation charge-charge Fourier energy:                     0.00000000
	Adsorbate/Cation charge-bonddipole Real energy:                    0.00000000
	Adsorbate/Cation charge-bonddipole Fourier energy:                 0.00000000
	Adsorbate/Cation bondipole-bonddipole Real energy:                 0.00000000
	Adsorbate/Cation bondipole-bonddipole Fourier energy:              0.00000000

Cation/Cation energy:                                           0.00000000
	Cation/Cation VDW energy:                                       0.00000000
	Cation/Cation Coulomb energy:                                   0.00000000
	Cation/Cation charge-charge Real energy:                        0.00000000
	Cation/Cation charge-charge Fourier energy:                     0.00000000
	Cation/Cation charge-bonddipole Real energy:                    0.00000000
	Cation/Cation charge-bonddipole Fourier energy:                 0.00000000
	Cation/Cation bondipole-bonddipole Real energy:                 0.00000000
	Cation/Cation bondipole-bonddipole Fourier energy:              0.00000000

Polarization energy:
	Host polarization energy:                                     0.00000000
	Adsorbate polarization energy:                                0.00000000
	Cation polarization energy:                                   0.00000000
	Host back-polarization energy:                                     0.00000000
	Adsorbate back-polarization energy:                                0.00000000
	Cation back-polarization energy:                                   0.00000000

Tail-correction energy:                                       0.00000000

Distance constraints energy:                                  0.00000000
Angle constraints energy:                                     0.00000000
Dihedral constraints energy:                                  0.00000000
Inversion-bend constraints energy:                            0.00000000
Out-of-plane distance constraints energy:                     0.00000000
Exclusion constraints energy:                                 0.00000000

===================================================================
Total energy: -4210329.167824625038
	Total Van der Waals: 783475.306801
	Total Coulomb: -5159809.823286

	Total Polarization: 0.000000







+++++++++++++++++++++++++++++++++++++++++++++++++++++++++++++++++++++++++
Starting simulation
+++++++++++++++++++++++++++++++++++++++++++++++++++++++++++++++++++++++++

Total number of variables used in the minimization: 1278
Number of cell-variables used in the minimization: 6
Total number of variables used for generalized coordinates in the minimization: 1272
Total number of variables used for positions in the minimization: 1272
Total number of variables used for orientation in the minimization: 0

Minimization initial volume:   17237.4927303680 [A^3]
Minimization initial energy: -4210329.1678245096 [K]
Minimization initial strain:       0.0000000000 [-]
Minimization initial box:      25.8320000000       0.0000000000       0.0000000000[-]
                                0.0000000000      25.8320000000       0.0000000000[-]
                                0.0000000000       0.0000000000      25.8320000000[-]

Beginning Baker minimization:
-----------------------------
Computing generalized Hessian matrix
Projecting constraints from generalized Hessian matrix
Computing eigenvalues and vectors
Shifting parameter: -147353.3264237352 Lowest eigenvalue:   -2006.8723178647
Iteration: 0 Energy: -4210329.1678245096 Volume:   17237.4927303680 RMS gradient: 308.192  Max gradient: 129218 Number of negative eigenvalues: 33 Number of zero eigenvalues: 3
      Box:      25.8320000000       0.0000000000       0.0000000000     Strain derivative:  129217.9969168001       0.0000000015       0.0000000020
                 0.0000000000      25.8320000000       0.0000000000                              0.0000000014  129217.9969168052       0.0000000014
                 0.0000000000       0.0000000000      25.8320000000                              0.0000000020       0.0000000014  129217.9969168293
      Lengths:      25.8320000000      25.8320000000      25.8320000000, Angles:      90.0000000000      90.0000000000      90.0000000000

Computing generalized Hessian matrix
Projecting constraints from generalized Hessian matrix
Computing eigenvalues and vectors
Shifting parameter:  -57004.2210105295 Lowest eigenvalue:    -746.8413644308
Iteration: 1 Energy: -4292014.8556437315 Volume:   17349.4050485113 RMS gradient: 155.459  Max gradient: 56529.1 Number of negative eigenvalues: 30 Number of zero eigenvalues: 3
      Box:      25.8877831544       0.0000000000       0.0000000000     Strain derivative:   56529.1247924101       0.0000000038      -0.0000000024
                 0.0000000000      25.8877831544       0.0000000000                              0.0000000038   56529.1247923909       0.0000000107
                 0.0000000000       0.0000000000      25.8877831544                             -0.0000000024       0.0000000107   56529.1247923950
      Lengths:      25.8877831544      25.8877831544      25.8877831544, Angles:      90.0000000000      90.0000000000      90.0000000000

Computing generalized Hessian matrix
Projecting constraints from generalized Hessian matrix
Computing eigenvalues and vectors
Shifting parameter:   -7574.2139992943 Lowest eigenvalue:       2.9126100271
Iteration: 2 Energy: -4327852.3716022503 Volume:   17456.4256177877 RMS gradient: 43.9935  Max gradient: 12484.7 Number of negative eigenvalues: 0 Number of zero eigenvalues: 3
      Box:      25.9409040544      -0.0000000000       0.0000000000     Strain derivative:   12484.6987988572       0.0000000003       0.0000000024
                 0.0000000000      25.9409040544      -0.0000000000                              0.0000000003   12484.6987988633      -0.0000000175
                 0.0000000000       0.0000000000      25.9409040544                              0.0000000024      -0.0000000174   12484.6987988676
      Lengths:      25.9409040544      25.9409040544      25.9409040544, Angles:      90.0000000000      90.0000000000      90.0000000000

Computing generalized Hessian matrix
Projecting constraints from generalized Hessian matrix
Computing eigenvalues and vectors
Shifting parameter:     -13.2164748071 Lowest eigenvalue:      13.4630986696
Iteration: 3 Energy: -4332564.8852486769 Volume:   17504.6792681568 RMS gradient: 2.57154  Max gradient: 1719.63 Number of negative eigenvalues: 0 Number of zero eigenvalues: 3
      Box:      25.9647843099      -0.0000000000       0.0000000000     Strain derivative:   -1719.6320207536      -0.0000000032      -0.0000000045
                 0.0000000000      25.9647843099      -0.0000000000                             -0.0000000032   -1719.6320207560       0.0000000042
                 0.0000000000       0.0000000000      25.9647843099                             -0.0000000045       0.0000000043   -1719.6320207809
      Lengths:      25.9647843099      25.9647843099      25.9647843099, Angles:      90.0000000000      90.0000000000      90.0000000000

Computing generalized Hessian matrix
Projecting constraints from generalized Hessian matrix
Computing eigenvalues and vectors
Shifting parameter:      -0.0002967195 Lowest eigenvalue:      10.3501254542
Iteration: 4 Energy: -4332572.8367246520 Volume:   17506.0447486073 RMS gradient: 0.0457404  Max gradient: 33.5214 Number of negative eigenvalues: 0 Number of zero eigenvalues: 3
      Box:      25.9654594339       0.0000000000      -0.0000000000     Strain derivative:     -33.5213707765      -0.0000000022       0.0000000020
                 0.0000000000      25.9654594339       0.0000000000                             -0.0000000022     -33.5213707830       0.0000000023
                 0.0000000000       0.0000000000      25.9654594339                              0.0000000020       0.0000000022     -33.5213707542
      Lengths:      25.9654594339      25.9654594339      25.9654594339, Angles:      90.0000000000      90.0000000000      90.0000000000

Computing generalized Hessian matrix
Projecting constraints from generalized Hessian matrix
Computing eigenvalues and vectors
Shifting parameter:      -0.0000000081 Lowest eigenvalue:      10.4374327762
Iteration: 5 Energy: -4332572.8369032079 Volume:   17506.0600236442 RMS gradient: 0.000256415  Max gradient: 0.188235 Number of negative eigenvalues: 0 Number of zero eigenvalues: 3
      Box:      25.9654669860      -0.0000000000      -0.0000000000     Strain derivative:      -0.1882348887      -0.0000000085       0.0000000096
                 0.0000000000      25.9654669860      -0.0000000000                             -0.0000000084      -0.1882348341      -0.0000000045
                 0.0000000000       0.0000000000      25.9654669860                              0.0000000097      -0.0000000045      -0.1882348283
      Lengths:      25.9654669860      25.9654669860      25.9654669860, Angles:      90.0000000000      90.0000000000      90.0000000000

Computing generalized Hessian matrix
Projecting constraints from generalized Hessian matrix
Computing eigenvalues and vectors
Shifting parameter:      -0.0000000000 Lowest eigenvalue:      10.4377067249
Iteration: 6 Energy: -4332572.8369032452 Volume:   17506.0601024088 RMS gradient: 1.21438e-06  Max gradient: 0.000889923 Number of negative eigenvalues: 0 Number of zero eigenvalues: 3
      Box:      25.9654670249       0.0000000000       0.0000000000     Strain derivative:      -0.0008898844       0.0000000046       0.0000000019
                 0.0000000000      25.9654670249       0.0000000000                              0.0000000046      -0.0008899227       0.0000000045
                 0.0000000000       0.0000000000      25.9654670249                              0.0000000019       0.0000000045      -0.0008899147
      Lengths:      25.9654670249      25.9654670249      25.9654670249, Angles:      90.0000000000      90.0000000000      90.0000000000

Computing generalized Hessian matrix
Projecting constraints from generalized Hessian matrix
Computing eigenvalues and vectors
Shifting parameter:      -0.0000000000 Lowest eigenvalue:      10.4377090476
Iteration: 7 Energy: -4332572.8369032126 Volume:   17506.0601028137 RMS gradient: 6.82787e-09  Max gradient: 5.03043e-06 Number of negative eigenvalues: 0 Number of zero eigenvalues: 3
      Box:      25.9654670251      -0.0000000000      -0.0000000000     Strain derivative:      -0.0000050039       0.0000000018       0.0000000077
                 0.0000000000      25.9654670251       0.0000000000                              0.0000000018      -0.0000050016       0.0000000007
                 0.0000000000       0.0000000000      25.9654670251                              0.0000000077       0.0000000007      -0.0000050304
      Lengths:      25.9654670251      25.9654670251      25.9654670251, Angles:      90.0000000000      90.0000000000      90.0000000000

Computing generalized Hessian matrix
Projecting constraints from generalized Hessian matrix
Computing eigenvalues and vectors
Shifting parameter:      -0.0000000000 Lowest eigenvalue:      10.4377090552
Iteration: 8 Energy: -4332572.8369031781 Volume:   17506.0601028158 RMS gradient: 5.0502e-11  Max gradient: 4.00511e-08 Number of negative eigenvalues: 0 Number of zero eigenvalues: 3
      Box:      25.9654670251       0.0000000000      -0.0000000000     Strain derivative:      -0.0000000401      -0.0000000012       0.0000000013
                 0.0000000000      25.9654670251       0.0000000000                             -0.0000000011      -0.0000000241      -0.0000000017
                 0.0000000000       0.0000000000      25.9654670251                              0.0000000013      -0.0000000017      -0.0000000362
      Lengths:      25.9654670251      25.9654670251      25.9654670251, Angles:      90.0000000000      90.0000000000      90.0000000000

SUCCES: RMS Gradient tolerance 1e-06 reached (5.0502e-11)
        Max Gradient tolerance 1e-06 reached (4.00511e-08)


Variable vector:
================
x: 0 = 7.5828
x: 1 = 5.3332
x: 2 = 5.3332
x: 3 = 6.458
x: 4 = 6.458
x: 5 = 6.458
x: 6 = 7.23816
x: 7 = 5.67784
x: 8 = 3.47764
x: 9 = 6.458
x: 10 = 6.458
x: 11 = 2.89358
x: 12 = 6.458
x: 13 = 6.458
x: 14 = 1.41764
x: 15 = 7.2977
x: 16 = 5.6183
x: 17 = 0.689587
x: 18 = 7.89379
x: 19 = 5.02221
x: 20 = 1.1321
x: 21 = 20.4988
x: 22 = 7.5828
x: 23 = 5.3332
x: 24 = 19.374
x: 25 = 6.458
x: 26 = 6.458
x: 27 = 20.1542
x: 28 = 7.23816
x: 29 = 3.47764
x: 30 = 19.374
x: 31 = 6.458
x: 32 = 2.89358
x: 33 = 19.374
x: 34 = 6.458
x: 35 = 1.41764
x: 36 = 20.2137
x: 37 = 7.2977
x: 38 = 0.689587
x: 39 = 20.8098
x: 40 = 7.89379
x: 41 = 1.1321
x: 42 = 18.2492
x: 43 = 20.4988
x: 44 = 5.3332
x: 45 = 19.374
x: 46 = 19.374
x: 47 = 6.458
x: 48 = 18.5938
x: 49 = 20.1542
x: 50 = 3.47764
x: 51 = 19.374
x: 52 = 19.374
x: 53 = 2.89358
x: 54 = 19.374
x: 55 = 19.374
x: 56 = 1.41764
x: 57 = 18.5343
x: 58 = 20.2137
x: 59 = 0.689587
x: 60 = 17.9382
x: 61 = 20.8098
x: 62 = 1.1321
x: 63 = 5.3332
x: 64 = 18.2492
x: 65 = 5.3332
x: 66 = 6.458
x: 67 = 19.374
x: 68 = 6.458
x: 69 = 5.67784
x: 70 = 18.5938
x: 71 = 3.47764
x: 72 = 6.458
x: 73 = 19.374
x: 74 = 2.89358
x: 75 = 6.458
x: 76 = 19.374
x: 77 = 1.41764
x: 78 = 5.6183
x: 79 = 18.5343
x: 80 = 0.689587
x: 81 = 5.02221
x: 82 = 17.9382
x: 83 = 1.1321
x: 84 = 7.5828
x: 85 = 20.4988
x: 86 = 20.4988
x: 87 = 6.458
x: 88 = 19.374
x: 89 = 19.374
x: 90 = 7.23816
x: 91 = 20.1542
x: 92 = 22.3544
x: 93 = 6.458
x: 94 = 19.374
x: 95 = 22.9384
x: 96 = 6.458
x: 97 = 19.374
x: 98 = 24.4144
x: 99 = 7.2977
x: 100 = 20.2137
x: 101 = 25.1424
x: 102 = 7.89379
x: 103 = 20.8098
x: 104 = 24.6999
x: 105 = 5.3332
x: 106 = 7.5828
x: 107 = 20.4988
x: 108 = 6.458
x: 109 = 6.458
x: 110 = 19.374
x: 111 = 5.67784
x: 112 = 7.23816
x: 113 = 22.3544
x: 114 = 6.458
x: 115 = 6.458
x: 116 = 22.9384
x: 117 = 6.458
x: 118 = 6.458
x: 119 = 24.4144
x: 120 = 5.6183
x: 121 = 7.2977
x: 122 = 25.1424
x: 123 = 5.02221
x: 124 = 7.89379
x: 125 = 24.6999
x: 126 = 18.2492
x: 127 = 5.3332
x: 128 = 20.4988
x: 129 = 19.374
x: 130 = 6.458
x: 131 = 19.374
x: 132 = 18.5938
x: 133 = 5.67784
x: 134 = 22.3544
x: 135 = 19.374
x: 136 = 6.458
x: 137 = 22.9384
x: 138 = 19.374
x: 139 = 6.458
x: 140 = 24.4144
x: 141 = 18.5343
x: 142 = 5.6183
x: 143 = 25.1424
x: 144 = 17.9382
x: 145 = 5.02221
x: 146 = 24.6999
x: 147 = 20.4988
x: 148 = 18.2492
x: 149 = 20.4988
x: 150 = 19.374
x: 151 = 19.374
x: 152 = 19.374
x: 153 = 20.1542
x: 154 = 18.5938
x: 155 = 22.3544
x: 156 = 19.374
x: 157 = 19.374
x: 158 = 22.9384
x: 159 = 19.374
x: 160 = 19.374
x: 161 = 24.4144
x: 162 = 20.2137
x: 163 = 18.5343
x: 164 = 25.1424
x: 165 = 20.8098
x: 166 = 17.9382
x: 167 = 24.6999
x: 168 = 5.3332
x: 169 = 7.5828
x: 170 = 5.3332
x: 171 = 3.47764
x: 172 = 7.23816
x: 173 = 5.67784
x: 174 = 2.89358
x: 175 = 6.458
x: 176 = 6.458
x: 177 = 1.41764
x: 178 = 6.458
x: 179 = 6.458
x: 180 = 0.689587
x: 181 = 7.2977
x: 182 = 5.6183
x: 183 = 1.1321
x: 184 = 7.89379
x: 185 = 5.02221
x: 186 = 18.2492
x: 187 = 5.3332
x: 188 = 5.3332
x: 189 = 18.5938
x: 190 = 3.47764
x: 191 = 5.67784
x: 192 = 19.374
x: 193 = 2.89358
x: 194 = 6.458
x: 195 = 19.374
x: 196 = 1.41764
x: 197 = 6.458
x: 198 = 18.5343
x: 199 = 0.689587
x: 200 = 5.6183
x: 201 = 17.9382
x: 202 = 1.1321
x: 203 = 5.02221
x: 204 = 20.4988
x: 205 = 18.2492
x: 206 = 5.3332
x: 207 = 22.3544
x: 208 = 18.5938
x: 209 = 5.67784
x: 210 = 22.9384
x: 211 = 19.374
x: 212 = 6.458
x: 213 = 24.4144
x: 214 = 19.374
x: 215 = 6.458
x: 216 = 25.1424
x: 217 = 18.5343
x: 218 = 5.6183
x: 219 = 24.6999
x: 220 = 17.9382
x: 221 = 5.02221
x: 222 = 7.5828
x: 223 = 20.4988
x: 224 = 5.3332
x: 225 = 7.23816
x: 226 = 22.3544
x: 227 = 5.67784
x: 228 = 6.458
x: 229 = 22.9384
x: 230 = 6.458
x: 231 = 6.458
x: 232 = 24.4144
x: 233 = 6.458
x: 234 = 7.2977
x: 235 = 25.1424
x: 236 = 5.6183
x: 237 = 7.89379
x: 238 = 24.6999
x: 239 = 5.02221
x: 240 = 5.3332
x: 241 = 18.2492
x: 242 = 20.4988
x: 243 = 3.47764
x: 244 = 18.5938
x: 245 = 20.1542
x: 246 = 2.89358
x: 247 = 19.374
x: 248 = 19.374
x: 249 = 1.41764
x: 250 = 19.374
x: 251 = 19.374
x: 252 = 0.689587
x: 253 = 18.5343
x: 254 = 20.2137
x: 255 = 1.1321
x: 256 = 17.9382
x: 257 = 20.8098
x: 258 = 7.5828
x: 259 = 5.3332
x: 260 = 20.4988
x: 261 = 7.23816
x: 262 = 3.47764
x: 263 = 20.1542
x: 264 = 6.458
x: 265 = 2.89358
x: 266 = 19.374
x: 267 = 6.458
x: 268 = 1.41764
x: 269 = 19.374
x: 270 = 7.2977
x: 271 = 0.689587
x: 272 = 20.2137
x: 273 = 7.89379
x: 274 = 1.1321
x: 275 = 20.8098
x: 276 = 20.4988
x: 277 = 7.5828
x: 278 = 20.4988
x: 279 = 22.3544
x: 280 = 7.23816
x: 281 = 20.1542
x: 282 = 22.9384
x: 283 = 6.458
x: 284 = 19.374
x: 285 = 24.4144
x: 286 = 6.458
x: 287 = 19.374
x: 288 = 25.1424
x: 289 = 7.2977
x: 290 = 20.2137
x: 291 = 24.6999
x: 292 = 7.89379
x: 293 = 20.8098
x: 294 = 18.2492
x: 295 = 20.4988
x: 296 = 20.4988
x: 297 = 18.5938
x: 298 = 22.3544
x: 299 = 20.1542
x: 300 = 19.374
x: 301 = 22.9384
x: 302 = 19.374
x: 303 = 19.374
x: 304 = 24.4144
x: 305 = 19.374
x: 306 = 18.5343
x: 307 = 25.1424
x: 308 = 20.2137
x: 309 = 17.9382
x: 310 = 24.6999
x: 311 = 20.8098
x: 312 = 5.3332
x: 313 = 5.3332
x: 314 = 7.5828
x: 315 = 5.67784
x: 316 = 3.47764
x: 317 = 7.23816
x: 318 = 6.458
x: 319 = 2.89358
x: 320 = 6.458
x: 321 = 6.458
x: 322 = 1.41764
x: 323 = 6.458
x: 324 = 5.6183
x: 325 = 0.689587
x: 326 = 7.2977
x: 327 = 5.02221
x: 328 = 1.1321
x: 329 = 7.89379
x: 330 = 5.3332
x: 331 = 20.4988
x: 332 = 18.2492
x: 333 = 5.67784
x: 334 = 22.3544
x: 335 = 18.5938
x: 336 = 6.458
x: 337 = 22.9384
x: 338 = 19.374
x: 339 = 6.458
x: 340 = 24.4144
x: 341 = 19.374
x: 342 = 5.6183
x: 343 = 25.1424
x: 344 = 18.5343
x: 345 = 5.02221
x: 346 = 24.6999
x: 347 = 17.9382
x: 348 = 5.3332
x: 349 = 5.3332
x: 350 = 18.2492
x: 351 = 3.47764
x: 352 = 5.67784
x: 353 = 18.5938
x: 354 = 2.89358
x: 355 = 6.458
x: 356 = 19.374
x: 357 = 1.41764
x: 358 = 6.458
x: 359 = 19.374
x: 360 = 0.689587
x: 361 = 5.6183
x: 362 = 18.5343
x: 363 = 1.1321
x: 364 = 5.02221
x: 365 = 17.9382
x: 366 = 20.4988
x: 367 = 5.3332
x: 368 = 18.2492
x: 369 = 20.1542
x: 370 = 3.47764
x: 371 = 18.5938
x: 372 = 19.374
x: 373 = 2.89358
x: 374 = 19.374
x: 375 = 19.374
x: 376 = 1.41764
x: 377 = 19.374
x: 378 = 20.2137
x: 379 = 0.689587
x: 380 = 18.5343
x: 381 = 20.8098
x: 382 = 1.1321
x: 383 = 17.9382
x: 384 = 20.4988
x: 385 = 20.4988
x: 386 = 18.2492
x: 387 = 22.3544
x: 388 = 20.1542
x: 389 = 18.5938
x: 390 = 22.9384
x: 391 = 19.374
x: 392 = 19.374
x: 393 = 24.4144
x: 394 = 19.374
x: 395 = 19.374
x: 396 = 25.1424
x: 397 = 20.2137
x: 398 = 18.5343
x: 399 = 24.6999
x: 400 = 20.8098
x: 401 = 17.9382
x: 402 = 20.4988
x: 403 = 20.4988
x: 404 = 7.5828
x: 405 = 20.1542
x: 406 = 22.3544
x: 407 = 7.23816
x: 408 = 19.374
x: 409 = 22.9384
x: 410 = 6.458
x: 411 = 19.374
x: 412 = 24.4144
x: 413 = 6.458
x: 414 = 20.2137
x: 415 = 25.1424
x: 416 = 7.2977
x: 417 = 20.8098
x: 418 = 24.6999
x: 419 = 7.89379
x: 420 = 5.3332
x: 421 = 20.4988
x: 422 = 7.5828
x: 423 = 3.47764
[...]
	Average              0.00000 [K] +/-            0.00000 [K]

Average Adsorbate Bond-Bend cross term energy:
=================================================
	Block[ 0]            0.00000 [K]
	Block[ 1]            0.00000 [K]
	Block[ 2]            0.00000 [K]
	Block[ 3]            0.00000 [K]
	Block[ 4]            0.00000 [K]
	------------------------------------------------------------------------------
	Average              0.00000 [K] +/-            0.00000 [K]

Average Adsorbate Bond-Torsion cross term energy:
=================================================
	Block[ 0]            0.00000 [K]
	Block[ 1]            0.00000 [K]
	Block[ 2]            0.00000 [K]
	Block[ 3]            0.00000 [K]
	Block[ 4]            0.00000 [K]
	------------------------------------------------------------------------------
	Average              0.00000 [K] +/-            0.00000 [K]

Average Adsorbate Bend-Torsion cross term energy:
=================================================
	Block[ 0]            0.00000 [K]
	Block[ 1]            0.00000 [K]
	Block[ 2]            0.00000 [K]
	Block[ 3]            0.00000 [K]
	Block[ 4]            0.00000 [K]
	------------------------------------------------------------------------------
	Average              0.00000 [K] +/-            0.00000 [K]

Average Adsorbate Intra Van der Waals energy:
=============================================
	Block[ 0]            0.00000 [K]
	Block[ 1]            0.00000 [K]
	Block[ 2]            0.00000 [K]
	Block[ 3]            0.00000 [K]
	Block[ 4]            0.00000 [K]
	------------------------------------------------------------------------------
	Average              0.00000 [K] +/-            0.00000 [K]

Average Adsorbate Intra charge-charge Coulomb energy:
=======================================
	Block[ 0]            0.00000 [K]
	Block[ 1]            0.00000 [K]
	Block[ 2]            0.00000 [K]
	Block[ 3]            0.00000 [K]
	Block[ 4]            0.00000 [K]
	------------------------------------------------------------------------------
	Average              0.00000 [K] +/-            0.00000 [K]

Average Adsorbate Intra charge-bonddipole Coulomb energy:
=======================================
	Block[ 0]            0.00000 [K]
	Block[ 1]            0.00000 [K]
	Block[ 2]            0.00000 [K]
	Block[ 3]            0.00000 [K]
	Block[ 4]            0.00000 [K]
	------------------------------------------------------------------------------
	Average              0.00000 [K] +/-            0.00000 [K]

Average Adsorbate Intra bonddipole-bonddipole Coulomb energy:
=======================================
	Block[ 0]            0.00000 [K]
	Block[ 1]            0.00000 [K]
	Block[ 2]            0.00000 [K]
	Block[ 3]            0.00000 [K]
	Block[ 4]            0.00000 [K]
	------------------------------------------------------------------------------
	Average              0.00000 [K] +/-            0.00000 [K]

Average Cation Bond stretch energy:
=================================
	Block[ 0]            0.00000 [K]
	Block[ 1]            0.00000 [K]
	Block[ 2]            0.00000 [K]
	Block[ 3]            0.00000 [K]
	Block[ 4]            0.00000 [K]
	------------------------------------------------------------------------------
	Average              0.00000 [K] +/-            0.00000 [K]

Average Cation UreyBradley stretch energy:
==========================================
	Block[ 0]            0.00000 [K]
	Block[ 1]            0.00000 [K]
	Block[ 2]            0.00000 [K]
	Block[ 3]            0.00000 [K]
	Block[ 4]            0.00000 [K]
	------------------------------------------------------------------------------
	Average              0.00000 [K] +/-            0.00000 [K]

Average Cation Bend angle energy:
=================================
	Block[ 0]            0.00000 [K]
	Block[ 1]            0.00000 [K]
	Block[ 2]            0.00000 [K]
	Block[ 3]            0.00000 [K]
	Block[ 4]            0.00000 [K]
	------------------------------------------------------------------------------
	Average              0.00000 [K] +/-            0.00000 [K]

Average Cation Bend angle inversion energy:
===========================================
	Block[ 0]            0.00000 [K]
	Block[ 1]            0.00000 [K]
	Block[ 2]            0.00000 [K]
	Block[ 3]            0.00000 [K]
	Block[ 4]            0.00000 [K]
	------------------------------------------------------------------------------
	Average              0.00000 [K] +/-            0.00000 [K]

Average Cation Torsion energy:
==============================
	Block[ 0]            0.00000 [K]
	Block[ 1]            0.00000 [K]
	Block[ 2]            0.00000 [K]
	Block[ 3]            0.00000 [K]
	Block[ 4]            0.00000 [K]
	------------------------------------------------------------------------------
	Average              0.00000 [K] +/-            0.00000 [K]

Average Cation Improper Torsion energy:
=======================================
	Block[ 0]            0.00000 [K]
	Block[ 1]            0.00000 [K]
	Block[ 2]            0.00000 [K]
	Block[ 3]            0.00000 [K]
	Block[ 4]            0.00000 [K]
	------------------------------------------------------------------------------
	Average              0.00000 [K] +/-            0.00000 [K]

Average Cation Bond-Bond cross term energy:
=================================================
	Block[ 0]            0.00000 [K]
	Block[ 1]            0.00000 [K]
	Block[ 2]            0.00000 [K]
	Block[ 3]            0.00000 [K]
	Block[ 4]            0.00000 [K]
	------------------------------------------------------------------------------
	Average              0.00000 [K] +/-            0.00000 [K]

Average Cation Bend-Bend cross term energy:
===========================================
	Block[ 0]            0.00000 [K]
	Block[ 1]            0.00000 [K]
	Block[ 2]            0.00000 [K]
	Block[ 3]            0.00000 [K]
	Block[ 4]            0.00000 [K]
	------------------------------------------------------------------------------
	Average              0.00000 [K] +/-            0.00000 [K]

Average Cation Bond-Bend cross term energy:
==============================================
	Block[ 0]            0.00000 [K]
	Block[ 1]            0.00000 [K]
	Block[ 2]            0.00000 [K]
	Block[ 3]            0.00000 [K]
	Block[ 4]            0.00000 [K]
	------------------------------------------------------------------------------
	Average              0.00000 [K] +/-            0.00000 [K]

Average Cation Bond-Torsion cross term energy:
==============================================
	Block[ 0]            0.00000 [K]
	Block[ 1]            0.00000 [K]
	Block[ 2]            0.00000 [K]
	Block[ 3]            0.00000 [K]
	Block[ 4]            0.00000 [K]
	------------------------------------------------------------------------------
	Average              0.00000 [K] +/-            0.00000 [K]

Average Cation Bend-Torsion cross term energy:
==============================================
	Block[ 0]            0.00000 [K]
	Block[ 1]            0.00000 [K]
	Block[ 2]            0.00000 [K]
	Block[ 3]            0.00000 [K]
	Block[ 4]            0.00000 [K]
	------------------------------------------------------------------------------
	Average              0.00000 [K] +/-            0.00000 [K]

Average Cation Intra Van der Waals energy:
==========================================
	Block[ 0]            0.00000 [K]
	Block[ 1]            0.00000 [K]
	Block[ 2]            0.00000 [K]
	Block[ 3]            0.00000 [K]
	Block[ 4]            0.00000 [K]
	------------------------------------------------------------------------------
	Average              0.00000 [K] +/-            0.00000 [K]

Average Cation Intra charge-charge Coulomb energy:
====================================
	Block[ 0]            0.00000 [K]
	Block[ 1]            0.00000 [K]
	Block[ 2]            0.00000 [K]
	Block[ 3]            0.00000 [K]
	Block[ 4]            0.00000 [K]
	------------------------------------------------------------------------------
	Average              0.00000 [K] +/-            0.00000 [K]

Average Cation Intra charge-bonddipole Coulomb energy:
====================================
	Block[ 0]            0.00000 [K]
	Block[ 1]            0.00000 [K]
	Block[ 2]            0.00000 [K]
	Block[ 3]            0.00000 [K]
	Block[ 4]            0.00000 [K]
	------------------------------------------------------------------------------
	Average              0.00000 [K] +/-            0.00000 [K]

Average Cation Intra bonddipole-bonddipole Coulomb energy:
====================================
	Block[ 0]            0.00000 [K]
	Block[ 1]            0.00000 [K]
	Block[ 2]            0.00000 [K]
	Block[ 3]            0.00000 [K]
	Block[ 4]            0.00000 [K]
	------------------------------------------------------------------------------
	Average              0.00000 [K] +/-            0.00000 [K]

Average Host-Host energy:
=========================
	Block[ 0] 0.00000            Van der Waals: 0.00000            Coulomb: 0.00000            [K]
	Block[ 1] 0.00000            Van der Waals: 0.00000            Coulomb: 0.00000            [K]
	Block[ 2] 0.00000            Van der Waals: 0.00000            Coulomb: 0.00000            [K]
	Block[ 3] 0.00000            Van der Waals: 0.00000            Coulomb: 0.00000            [K]
	Block[ 4] 0.00000            Van der Waals: 0.00000            Coulomb: 0.00000            [K]
	------------------------------------------------------------------------------
	Average   0.00000            Van der Waals: 0.000000           Coulomb: 0.00000            [K]
	      +/- 0.00000                       +/- 0.000000                +/- 0.00000            [K]

Average Adsorbate-Adsorbate energy:
===================================
	Block[ 0] 0.00000            Van der Waals: 0.00000            Coulomb: 0.00000            [K]
	Block[ 1] 0.00000            Van der Waals: 0.00000            Coulomb: 0.00000            [K]
	Block[ 2] 0.00000            Van der Waals: 0.00000            Coulomb: 0.00000            [K]
	Block[ 3] 0.00000            Van der Waals: 0.00000            Coulomb: 0.00000            [K]
	Block[ 4] 0.00000            Van der Waals: 0.00000            Coulomb: 0.00000            [K]
	------------------------------------------------------------------------------
	Average   0.00000            Van der Waals: 0.000000           Coulomb: 0.00000            [K]
	      +/- 0.00000                       +/- 0.000000                +/- 0.00000            [K]

Average Cation-Cation energy:
=============================
	Block[ 0] 0.00000            Van der Waals: 0.00000            Coulomb: 0.00000            [K]
	Block[ 1] 0.00000            Van der Waals: 0.00000            Coulomb: 0.00000            [K]
	Block[ 2] 0.00000            Van der Waals: 0.00000            Coulomb: 0.00000            [K]
	Block[ 3] 0.00000            Van der Waals: 0.00000            Coulomb: 0.00000            [K]
	Block[ 4] 0.00000            Van der Waals: 0.00000            Coulomb: 0.00000            [K]
	------------------------------------------------------------------------------
	Average   0.00000            Van der Waals: 0.000000           Coulomb: 0.00000            [K]
	      +/- 0.00000                       +/- 0.000000                +/- 0.00000            [K]

Average Host-Adsorbate energy:
==============================
	Block[ 0] 0.00000            Van der Waals: 0.00000            Coulomb: 0.00000            [K]
	Block[ 1] 0.00000            Van der Waals: 0.00000            Coulomb: 0.00000            [K]
	Block[ 2] 0.00000            Van der Waals: 0.00000            Coulomb: 0.00000            [K]
	Block[ 3] 0.00000            Van der Waals: 0.00000            Coulomb: 0.00000            [K]
	Block[ 4] 0.00000            Van der Waals: 0.00000            Coulomb: 0.00000            [K]
	------------------------------------------------------------------------------
	Average   0.00000            Van der Waals: 0.000000           Coulomb: 0.00000            [K]
	      +/- 0.00000                       +/- 0.000000                +/- 0.00000            [K]

Average Host-Cation energy:
===========================
	Block[ 0] 0.00000            Van der Waals: 0.00000            Coulomb: 0.00000            [K]
	Block[ 1] 0.00000            Van der Waals: 0.00000            Coulomb: 0.00000            [K]
	Block[ 2] 0.00000            Van der Waals: 0.00000            Coulomb: 0.00000            [K]
	Block[ 3] 0.00000            Van der Waals: 0.00000            Coulomb: 0.00000            [K]
	Block[ 4] 0.00000            Van der Waals: 0.00000            Coulomb: 0.00000            [K]
	------------------------------------------------------------------------------
	Average   0.00000            Van der Waals: 0.000000           Coulomb: 0.00000            [K]
	      +/- 0.00000                       +/- 0.000000                +/- 0.00000            [K]

Average Adsorbate-Cation energy:
================================
	Block[ 0] 0.00000            Van der Waals: 0.00000            Coulomb: 0.00000            [K]
	Block[ 1] 0.00000            Van der Waals: 0.00000            Coulomb: 0.00000            [K]
	Block[ 2] 0.00000            Van der Waals: 0.00000            Coulomb: 0.00000            [K]
	Block[ 3] 0.00000            Van der Waals: 0.00000            Coulomb: 0.00000            [K]
	Block[ 4] 0.00000            Van der Waals: 0.00000            Coulomb: 0.00000            [K]
	------------------------------------------------------------------------------
	Average   0.00000            Van der Waals: 0.000000           Coulomb: 0.00000            [K]
	      +/- 0.00000                       +/- 0.000000                +/- 0.00000            [K]

Host polarization energy:
=======================
	Block[ 0]            0.00000 [K]
	Block[ 1]            0.00000 [K]
	Block[ 2]            0.00000 [K]
	Block[ 3]            0.00000 [K]
	Block[ 4]            0.00000 [K]
	------------------------------------------------------------------------------
	Average              0.00000 [K] +/-            0.00000 [K]

Adsorbate polarization energy:
=======================
	Block[ 0]            0.00000 [K]
	Block[ 1]            0.00000 [K]
	Block[ 2]            0.00000 [K]
	Block[ 3]            0.00000 [K]
	Block[ 4]            0.00000 [K]
	------------------------------------------------------------------------------
	Average              0.00000 [K] +/-            0.00000 [K]

Cation polarization energy:
=======================
	Block[ 0]            0.00000 [K]
	Block[ 1]            0.00000 [K]
	Block[ 2]            0.00000 [K]
	Block[ 3]            0.00000 [K]
	Block[ 4]            0.00000 [K]
	------------------------------------------------------------------------------
	Average              0.00000 [K] +/-            0.00000 [K]

Host back-polarization energy:
=======================
	Block[ 0]            0.00000 [K]
	Block[ 1]            0.00000 [K]
	Block[ 2]            0.00000 [K]
	Block[ 3]            0.00000 [K]
	Block[ 4]            0.00000 [K]
	------------------------------------------------------------------------------
	Average              0.00000 [K] +/-            0.00000 [K]

Adsorbate back-polarization energy:
=======================
	Block[ 0]            0.00000 [K]
	Block[ 1]            0.00000 [K]
	Block[ 2]            0.00000 [K]
	Block[ 3]            0.00000 [K]
	Block[ 4]            0.00000 [K]
	------------------------------------------------------------------------------
	Average              0.00000 [K] +/-            0.00000 [K]

Cation back-polarization energy:
=======================
	Block[ 0]            0.00000 [K]
	Block[ 1]            0.00000 [K]
	Block[ 2]            0.00000 [K]
	Block[ 3]            0.00000 [K]
	Block[ 4]            0.00000 [K]
	------------------------------------------------------------------------------
	Average              0.00000 [K] +/-            0.00000 [K]

Tail-correction energy:
=======================
	Block[ 0]            0.00000 [K]
	Block[ 1]            0.00000 [K]
	Block[ 2]            0.00000 [K]
	Block[ 3]            0.00000 [K]
	Block[ 4]            0.00000 [K]
	------------------------------------------------------------------------------
	Average              0.00000 [K] +/-            0.00000 [K]

Distance-constraints energy:
=======================
	Block[ 0]            0.00000 [K]
	Block[ 1]            0.00000 [K]
	Block[ 2]            0.00000 [K]
	Block[ 3]            0.00000 [K]
	Block[ 4]            0.00000 [K]
	------------------------------------------------------------------------------
	Average              0.00000 [K] +/-            0.00000 [K]

Angle-constraints energy:
=======================
	Block[ 0]            0.00000 [K]
	Block[ 1]            0.00000 [K]
	Block[ 2]            0.00000 [K]
	Block[ 3]            0.00000 [K]
	Block[ 4]            0.00000 [K]
	------------------------------------------------------------------------------
	Average              0.00000 [K] +/-            0.00000 [K]

Dihedral-constraints energy:
=======================
	Block[ 0]            0.00000 [K]
	Block[ 1]            0.00000 [K]
	Block[ 2]            0.00000 [K]
	Block[ 3]            0.00000 [K]
	Block[ 4]            0.00000 [K]
	------------------------------------------------------------------------------
	Average              0.00000 [K] +/-            0.00000 [K]

Inversion-bend constraints energy:
=======================
	Block[ 0]            0.00000 [K]
	Block[ 1]            0.00000 [K]
	Block[ 2]            0.00000 [K]
	Block[ 3]            0.00000 [K]
	Block[ 4]            0.00000 [K]
	------------------------------------------------------------------------------
	Average              0.00000 [K] +/-            0.00000 [K]

Out-of-plane-distance constraints energy:
=======================
	Block[ 0]            0.00000 [K]
	Block[ 1]            0.00000 [K]
	Block[ 2]            0.00000 [K]
	Block[ 3]            0.00000 [K]
	Block[ 4]            0.00000 [K]
	------------------------------------------------------------------------------
	Average              0.00000 [K] +/-            0.00000 [K]

Exclusion-constraints energy:
=======================
	Block[ 0]            0.00000 [K]
	Block[ 1]            0.00000 [K]
	Block[ 2]            0.00000 [K]
	Block[ 3]            0.00000 [K]
	Block[ 4]            0.00000 [K]
	------------------------------------------------------------------------------
	Average              0.00000 [K] +/-            0.00000 [K]

Total energy:
=============
	Block[ 0]            0.00000 [K]
	Block[ 1]            0.00000 [K]
	Block[ 2]            0.00000 [K]
	Block[ 3]            0.00000 [K]
	Block[ 4]            0.00000 [K]
	------------------------------------------------------------------------------
	Average              0.00000 [K] +/-            0.00000 [K]

Number of molecules:
====================


Average Widom Rosenbluth factor:
================================

Average Widom chemical potential:
=================================

Average Widom Ideal-gas contribution:
=====================================

Average Widom excess contribution:
==================================

Average Gibbs Widom Rosenbluth factor:
======================================

Average Gibbs Widom chemical potential:
=======================================

Average Gibbs Widom Ideal-gas contribution:
===========================================

Average Gibbs Widom excess contribution:
===========================================

Average Henry coefficient:
==========================

Average adsorption energy <U_gh>_1-<U_h>_0 obtained from Widom-insertion:
(Note: the total heat of adsorption is dH=<U_gh>_1-<U_h>_0 - <U_g> - RT)
=========================================================================

Simulation finished,  0 warnings


Wed May 19 10:04:22 2021
Simulation finished on Wednesday, May 19.
The end time was 10:04 AM.

