Compiler and run-time data
===========================================================================
RASPA 1.9-12
Compiled as a 64-bits application
Compiler: gcc 4.2.1 Compatible Apple LLVM 6.0 (clang-600.0.54)
Compile Date = Nov 26 2014, Compile Time = 15:49:31

Sun Nov 30 11:02:09 2014
Simulation started on Sunday, November 30.
The start time was 11:02 AM.

Cpu data:    x86_64
Cpu Model:   MacPro5,1
Host name:   server.darkwing.nl
OS release:  14.0.0
OS type:     Darwin
OS version:  14B25


Simulation
===========================================================================
Dimensions: 3
Random number seed: 1417341729
RASPA directory set to: /Users/dubbelda/RASPA/simulations/
String appended to output-files: 
Number of cycles: 10000
Number of initializing cycles: 0
Number of equilibration cycles: 0
Print every: 100
Triclinic boundary condition applied
Timestep: 0.000500
Initialization Ensemble: NVE (constant number of particles N, constant volume V, constant energy E)
Production run ensemble: NVE (constant number of particles N, constant volume V, constant energy E)
	Degrees of freedom:                        0
	Translational Degrees of freedom:          0
	Rotational Degrees of freedom:             0
	Degrees of freedom Framework:              0


Mutual consistent basic set of units:
======================================
Unit of temperature: Kelvin
Unit of length:      1e-10 [m]
Unit of time:        1e-12 [s]
Unit of mass:        1.66054e-27 [kg]
Unit of charge:      1.60218e-19 [C/particle]

Derived units and their conversion factors:
===========================================
Unit of energy:              1.66054e-23 [J]
Unit of force:               1.66054e-13 [N]
Unit of pressure:            1.66054e+07 [Pa]
Unit of velocity:            100 [m/s]
Unit of acceleration:        1e-08 [m^2/s]
Unit of diffusion:           1e-08 [m^2/s]
Unit of dipole moment:       1.60218e-29 [C.m]
Unit of electric potential:  0.000103643 [V]
Unit of electric field:      1.03643e+06 [V]
Unit of polarizability:      1.54587e-35 [-]
Unit of Coulomb potential:   167101.0800066561  [K]
Unit of dielectric constant: 0.0000154587       [s^2 C^2/(kg m^3)]
Unit of wave vectors:        5.3088374589       [cm^1]
Boltzmann constant:          0.8314464919       [-]

Internal conversion factors:
===========================================
Energy to Kelvin:                                    1.2027242847
FH correction factor                                 2.0211930949
Heat capacity conversion factor:                    10.0000088723
From Debye to internal units:                        4.8032067991
Isothermal compressibility conversion factor:        0.0000000602

Energy conversion factors:
===========================================
From mdyne/A to kcal/mol/A^2:           143.933
From mdyne/A to kj/mol/A^2:             602.214
From mdyne/A to K/A^2:                  72429.7
From mdyne A/rad^2 to kcal/mol/deg^2:   0.0438444


Properties computed
===========================================================================
Movies: no
Radial Distribution Function: no
Number of molecules GCMC histogram: no
Histogram of the molecule positions: no
Free energy profiles: no
Pore Size Distribution Function: no
End-to-end distance: no
Histogram of the energy of the system: no
Compute thermodynamic factors: no
Framework spacing histograms: no
Residence times histograms: no
Distance histograms: no
Bend Angle histograms: no
Dihedral angle histograms: no
Angle between planes histograms: no
Molecule properties: no
Infra-red spectra: no
Mean-squared displacement using modified order-N algorithm: no
Velocity-autocorrelation function modified order-N algorithm: no
Rotational velocity-autocorrelation function modified order-N algorithm: no
Molecular orientation-autocorrelation function modified order-N algorithm: no
Bond orientation-autocorrelation function modified order-N algorithm: no
Mean-squared displacement (conventional algorithm): no
Velocity-autocorrelation function (conventional algorithm): no
3D density grid for adsorbates: no
Compute cation an/or adsorption sites: no
dcTST snapshots: no
Compute pressure and stress: no


VTK
===========================================================================
VTK fractional-range position framework atoms: [-0.001000,1.001000] [-0.001000,1.001000] [-0.001000,1.001000]
VTK fractional-range position framework bonds: [-0.151000,1.151000] [-0.151000,1.151000] [-0.151000,1.151000]
VTK fractional-range com-position adsorbate molecules: [-0.101000,1.101000] [-0.101000,1.101000] [-0.101000,1.101000]
VTK fractional-range com-position cation molecules: [-0.101000,1.101000] [-0.101000,1.101000] [-0.101000,1.101000]
	3D free energy grid made for the full simulation-cell


Thermo/Baro-stat NHC parameters
===========================================================================
External temperature: 298 [K]
Beta: 0 [energy unit]
External Pressure: 0 [Pa]


Thermostat chain-length: 3
Timescale parameter for thermostat: 0.150000 [ps]
Barostat chain-length:   3
Timescale parameter for barostat:   0.150000 [ps]

Number of Yoshida-Suzuki decomposition steps: 5
Number of respa steps: 5


Method and settings for electrostatics
===============================================================================
Dielectric constant of the medium : 1.000000
Charge from charge-equilibration: no
Ewald summation is used (exact solution of a periodic system)
Relative precision                : 1e-06
Alpha convergence parameter       : 0.265058
kvec (x,y,z)                      : 10 10 8


CFC-RXMC parameters
===========================================================================
Number of reactions: 0


Rattle parameters
===========================================================================
Distance constraint type: r^2-r^2_0
Bend angle constraint type: theta-theta_0
Dihedral angle constraint type: phi-phi_0
Inversion-bend angle constraint type: chi-chi_0
Out-of-plane distance constraint type: r-r_0


Spectra parameters
===========================================================================
Compute normal modes: no


Minimization parameters
===========================================================================
Generalized coordinates are: Cartesian center-of-mass, elements of the orientational matrix p1,p2,p3 and strain
Potential derivatives are evaluated: analytically
Translation of the system is removed from the generalized Hessian: no
Rotation of the system is removed from the generalized Hessian: no
Maximum step-length: 0.3
Convergence factor: 1
Maximum number of minimization steps: 10000
Use gradients in the line-minimizations: yes
RMS gradient tolerance: 1e-06
Maximum gradient tolerance: 1e-06

Distance constraints: 0
Angle constraints: 0
Dihedral constraints: 0

Improper dihedral constraints: 0

Inversion-bend constraints: 0

Out-of-plane constraints: 0

Harmonic distance constraints: 0
Harmonic angle constraints: 0
Harmonic dihedral constraints: 0

Dihedral mid-point measurements: 0

All framework atoms are fixed

Fixed adsorbate atoms:  
Fixed adsorbate groups (center-of-mass):  
Fixed adsorbate groups (orientation):  

Fixed cation atoms:  
Fixed cation groups (center-of-mass):  
Fixed cation groups (orientation):  


dcTST parameters
===========================================================================
Free energy profiles computed: no
Free energy profiles written every 5000 cycles
Free energy mapping: mapped to a,b,c-coordinates
BarrierPosition:       0.0000000000       0.0000000000       0.0000000000
BarrierNormal:         0.0000000000       0.0000000000       0.0000000000
Start with a molecule on top of the barrier: no
Maximum distance to barrier (e.g. distance to minumum free energy):       0.0000000000 [A]
Maximum trajectory time:      10.0000000000 [ps]
Each configuration is used with 5 different initial velocities


Cbmc parameters
===========================================================================
Biasing method: using only the VDW part
Number of trial positions:                                       10
Number of trial positions (reinsertion):                         10
Number of trial positions (partial reinsertion):                 10
Number of trial positions (identity-change):                     10
Number of trial positions (Gibbs particle transfer):             10
Number of trial positions (insertion/deletion):                  10
Number of trial positions (Widom insertion):                     10
Number of trial positions coupled Torsion-selection:             100
Number of trial positions first bead:                            10
Number of trial positions first bead (reinsertion):              10
Number of trial positions first bead (partial reinsertion):      10
Number of trial positions first bead (identity-change):          10
Number of trial positions first bead (Gibbs particle transfer):  10
Number of trial positions first bead (insertion/deletion):       10
Number of trial positions first bead (Widom insertion):          10
Number of trial moves per open bead:                             150
Target acceptance ratio small-mc scheme:                         0.400000
Energy overlap criteria:                                         1e+07
Minimal Rosenbluth factor:                                       1e-150


Pseudo atoms: 43
===========================================================================
Pseudo Atom[   0] Name UNIT     Oxidation:          Element: H    pdb-name: H    Scat. Types:   1   1 Mass=1.000000000  B-factor:0.000   
                 Charge=1.000000000          Polarization=0.000000000  [A^3] (considered a charged atom and no polarization)  Interactions: yes
                 Anisotropic factor:    0.000 [-] (Absolute), Radius:    1.000 [A], Framework-atom:  no
Pseudo Atom[   1] Name He       Oxidation: +0       Element: He   pdb-name: He   Scat. Types:   3   2 Mass=4.002602000  B-factor:1.000   
                 Charge=0.000000000          Polarization=0.000000000  [A^3] (considered a chargeless atom and no polarization)  Interactions: yes
                 Anisotropic factor:    0.000 [-] (Relative), Radius:    1.000 [A], Framework-atom:  no
Pseudo Atom[   2] Name CH4_sp3  Oxidation: +0       Element: C    pdb-name: C    Scat. Types:   7   6 Mass=16.042460000 B-factor:1.000   
                 Charge=0.000000000          Polarization=0.000000000  [A^3] (considered a chargeless atom and no polarization)  Interactions: yes
                 Anisotropic factor:    0.000 [-] (Relative), Radius:    1.000 [A], Framework-atom:  no
Pseudo Atom[   3] Name CH3_sp3  Oxidation: +0       Element: C    pdb-name: C    Scat. Types:   7   6 Mass=15.034520000 B-factor:1.000   
                 Charge=0.000000000          Polarization=0.000000000  [A^3] (considered a chargeless atom and no polarization)  Interactions: yes
                 Anisotropic factor:    0.000 [-] (Relative), Radius:    1.000 [A], Framework-atom:  no
Pseudo Atom[   4] Name CH2_sp3  Oxidation: +0       Element: C    pdb-name: C    Scat. Types:   7   6 Mass=14.026580000 B-factor:1.000   
                 Charge=0.000000000          Polarization=0.000000000  [A^3] (considered a chargeless atom and no polarization)  Interactions: yes
                 Anisotropic factor:    0.000 [-] (Relative), Radius:    1.000 [A], Framework-atom:  no
Pseudo Atom[   5] Name CH_sp3   Oxidation: +0       Element: C    pdb-name: C    Scat. Types:   7   6 Mass=13.018640000 B-factor:1.000   
                 Charge=0.000000000          Polarization=0.000000000  [A^3] (considered a chargeless atom and no polarization)  Interactions: yes
                 Anisotropic factor:    0.000 [-] (Relative), Radius:    1.000 [A], Framework-atom:  no
Pseudo Atom[   6] Name C_sp3    Oxidation: +0       Element: C    pdb-name: C    Scat. Types:   7   6 Mass=12.000000000 B-factor:1.000   
                 Charge=0.000000000          Polarization=0.000000000  [A^3] (considered a chargeless atom and no polarization)  Interactions: yes
                 Anisotropic factor:    0.000 [-] (Relative), Radius:    1.000 [A], Framework-atom:  no
Pseudo Atom[   7] Name H_h2     Oxidation: +0       Element: H    pdb-name: H    Scat. Types:   1   1 Mass=1.007940000  B-factor:1.000   
                 Charge=0.468000000          Polarization=0.000000000  [A^3] (considered a charged atom and no polarization)  Interactions: yes
                 Anisotropic factor:    0.000 [-] (Relative), Radius:    0.700 [A], Framework-atom:  no
Pseudo Atom[   8] Name H_com    Oxidation: +0       Element: H    pdb-name: H    Scat. Types:   1   1 Mass=0.000000000  B-factor:1.000   
                 Charge=-0.936000000         Polarization=0.000000000  [A^3] (considered a charged atom and no polarization)  Interactions: yes
                 Anisotropic factor:    0.000 [-] (Relative), Radius:    0.700 [A], Framework-atom:  no
Pseudo Atom[   9] Name C_co2    Oxidation: +0       Element: C    pdb-name: C    Scat. Types:   7   6 Mass=12.000000000 B-factor:1.000   
                 Charge=0.700000000          Polarization=0.000000000  [A^3] (considered a charged atom and no polarization)  Interactions: yes
                 Anisotropic factor:    0.000 [-] (Relative), Radius:    0.720 [A], Framework-atom:  no
Pseudo Atom[  10] Name O_co2    Oxidation: +0       Element: O    pdb-name: O    Scat. Types:   9   8 Mass=15.999400000 B-factor:1.000   
                 Charge=-0.350000000         Polarization=0.000000000  [A^3] (considered a charged atom and no polarization)  Interactions: yes
                 Anisotropic factor:    0.000 [-] (Relative), Radius:    0.680 [A], Framework-atom:  no
Pseudo Atom[  11] Name O_o2     Oxidation: +0       Element: O    pdb-name: O    Scat. Types:   9   8 Mass=15.999400000 B-factor:1.000   
                 Charge=-0.112000000         Polarization=0.000000000  [A^3] (considered a charged atom and no polarization)  Interactions: yes
                 Anisotropic factor:    0.000 [-] (Relative), Radius:    0.700 [A], Framework-atom:  no
Pseudo Atom[  12] Name O_com    Oxidation: +0       Element: -    pdb-name: O    Scat. Types:   0   8 Mass=0.000000000  B-factor:1.000   
                 Charge=0.224000000          Polarization=0.000000000  [A^3] (considered a charged atom and no polarization)  Interactions: yes
                 Anisotropic factor:    0.000 [-] (Relative), Radius:    0.700 [A], Framework-atom:  no
Pseudo Atom[  13] Name N_n2     Oxidation: +0       Element: N    pdb-name: N    Scat. Types:   8   7 Mass=14.006740000 B-factor:1.000   
                 Charge=-0.404800000         Polarization=0.000000000  [A^3] (considered a charged atom and no polarization)  Interactions: yes
                 Anisotropic factor:    0.000 [-] (Relative), Radius:    0.700 [A], Framework-atom:  no
Pseudo Atom[  14] Name N_com    Oxidation: +0       Element: -    pdb-name: N    Scat. Types:   0   7 Mass=0.000000000  B-factor:1.000   
                 Charge=0.809600000          Polarization=0.000000000  [A^3] (considered a charged atom and no polarization)  Interactions: yes
                 Anisotropic factor:    0.000 [-] (Relative), Radius:    0.700 [A], Framework-atom:  no
Pseudo Atom[  15] Name Ar       Oxidation: +0       Element: Ar   pdb-name: Ar   Scat. Types:  19  18 Mass=39.948000000 B-factor:1.000   
                 Charge=0.000000000          Polarization=0.000000000  [A^3] (considered a chargeless atom and no polarization)  Interactions: yes
                 Anisotropic factor:    0.000 [-] (Relative), Radius:    0.700 [A], Framework-atom:  no
Pseudo Atom[  16] Name Ow       Oxidation: +0       Element: O    pdb-name: O    Scat. Types:   9   8 Mass=15.999400000 B-factor:1.000   
                 Charge=0.000000000          Polarization=0.000000000  [A^3] (considered a chargeless atom and no polarization)  Interactions: yes
                 Anisotropic factor:    0.000 [-] (Relative), Radius:    0.500 [A], Framework-atom:  no
Pseudo Atom[  17] Name Hw       Oxidation: +0       Element: H    pdb-name: H    Scat. Types:   1   1 Mass=1.007940000  B-factor:1.000   
                 Charge=0.241000000          Polarization=0.000000000  [A^3] (considered a charged atom and no polarization)  Interactions: yes
                 Anisotropic factor:    0.000 [-] (Relative), Radius:    1.000 [A], Framework-atom:  no
Pseudo Atom[  18] Name Lw       Oxidation: +0       Element: H    pdb-name: L    Scat. Types:   1   3 Mass=0.000000000  B-factor:1.000   
                 Charge=-0.241000000         Polarization=0.000000000  [A^3] (considered a charged atom and no polarization)  Interactions: yes
                 Anisotropic factor:    0.000 [-] (Relative), Radius:    1.000 [A], Framework-atom:  no
Pseudo Atom[  19] Name C_benz   Oxidation: +0       Element: C    pdb-name: C    Scat. Types:   7   6 Mass=12.000000000 B-factor:1.000   
                 Charge=-0.095000000         Polarization=0.000000000  [A^3] (considered a charged atom and no polarization)  Interactions: yes
                 Anisotropic factor:    0.000 [-] (Relative), Radius:    0.700 [A], Framework-atom:  no
Pseudo Atom[  20] Name H_benz   Oxidation: +0       Element: H    pdb-name: H    Scat. Types:   1   1 Mass=1.007940000  B-factor:1.000   
                 Charge=0.095000000          Polarization=0.000000000  [A^3] (considered a charged atom and no polarization)  Interactions: yes
                 Anisotropic factor:    0.000 [-] (Relative), Radius:    0.320 [A], Framework-atom:  no
Pseudo Atom[  21] Name N_dmf    Oxidation: +0       Element: N    pdb-name: N    Scat. Types:   8   7 Mass=14.006740000 B-factor:1.000   
                 Charge=-0.570000000         Polarization=0.000000000  [A^3] (considered a charged atom and no polarization)  Interactions: yes
                 Anisotropic factor:    0.000 [-] (Relative), Radius:    0.500 [A], Framework-atom:  no
Pseudo Atom[  22] Name Co_dmf   Oxidation: +0       Element: C    pdb-name: C    Scat. Types:   7   6 Mass=12.000000000 B-factor:1.000   
                 Charge=0.450000000          Polarization=0.000000000  [A^3] (considered a charged atom and no polarization)  Interactions: yes
                 Anisotropic factor:    0.000 [-] (Relative), Radius:    0.520 [A], Framework-atom:  no
Pseudo Atom[  23] Name Cm_dmf   Oxidation: +0       Element: C    pdb-name: C    Scat. Types:   7   6 Mass=12.000000000 B-factor:1.000   
                 Charge=0.280000000          Polarization=0.000000000  [A^3] (considered a charged atom and no polarization)  Interactions: yes
                 Anisotropic factor:    0.000 [-] (Relative), Radius:    0.520 [A], Framework-atom:  no
Pseudo Atom[  24] Name O_dmf    Oxidation: +0       Element: O    pdb-name: O    Scat. Types:   9   8 Mass=15.999400000 B-factor:1.000   
                 Charge=-0.500000000         Polarization=0.000000000  [A^3] (considered a charged atom and no polarization)  Interactions: yes
                 Anisotropic factor:    0.000 [-] (Relative), Radius:    0.780 [A], Framework-atom:  no
Pseudo Atom[  25] Name H_dmf    Oxidation: +0       Element: H    pdb-name: H    Scat. Types:   1   1 Mass=1.007940000  B-factor:1.000   
                 Charge=0.060000000          Polarization=0.000000000  [A^3] (considered a charged atom and no polarization)  Interactions: yes
                 Anisotropic factor:    0.000 [-] (Relative), Radius:    0.220 [A], Framework-atom:  no
Pseudo Atom[  26] Name Na       Oxidation: +0       Element: Na   pdb-name: Na   Scat. Types:  12  11 Mass=22.989770000 B-factor:1.000   
                 Charge=1.000000000          Polarization=0.000000000  [A^3] (considered a charged atom and no polarization)  Interactions: yes
                 Anisotropic factor:    0.000 [-] (Relative), Radius:    1.000 [A], Framework-atom:  no
Pseudo Atom[  27] Name Cl       Oxidation: +0       Element: Cl   pdb-name: Cl   Scat. Types:  18  17 Mass=35.453000000 B-factor:1.000   
                 Charge=-1.000000000         Polarization=0.000000000  [A^3] (considered a charged atom and no polarization)  Interactions: yes
                 Anisotropic factor:    0.000 [-] (Relative), Radius:    1.000 [A], Framework-atom:  no
Pseudo Atom[  28] Name Kr       Oxidation: +0       Element: Kr   pdb-name: Kr   Scat. Types:  37  36 Mass=83.798000000 B-factor:1.000   
                 Charge=0.000000000          Polarization=0.000000000  [A^3] (considered a chargeless atom and no polarization)  Interactions: yes
                 Anisotropic factor:    0.000 [-] (Relative), Radius:    1.000 [A], Framework-atom:  no
Pseudo Atom[  29] Name Xe       Oxidation: +0       Element: Xe   pdb-name: Xe   Scat. Types:  55  54 Mass=131.293000000 B-factor:1.000   
                 Charge=0.000000000          Polarization=0.000000000  [A^3] (considered a chargeless atom and no polarization)  Interactions: yes
                 Anisotropic factor:    0.000 [-] (Relative), Radius:    1.000 [A], Framework-atom:  no
Pseudo Atom[  30] Name Zn1      Oxidation:          Element: Zn   pdb-name: Zn   Scat. Types:  31  30 Mass=65.408728088 B-factor:0.000   
                 Charge=0.000000000  (-na-)  Polarization=5.750000000  [A^3] (considered a chargeless atom and no polarization)  Interactions: yes
                 Anisotropic factor:    0.000 [-] (Absolute), Radius:    1.200 [A], Framework-atom: yes (charge definition not found)
Pseudo Atom[  31] Name O2       Oxidation:          Element: O    pdb-name: O    Scat. Types:   9   8 Mass=15.999404927 B-factor:0.000   
                 Charge=0.000000000  (-na-)  Polarization=0.802000000  [A^3] (considered a chargeless atom and no polarization)  Interactions: yes
                 Anisotropic factor:    0.000 [-] (Absolute), Radius:    0.640 [A], Framework-atom: yes (charge definition not found)
Pseudo Atom[  32] Name C6       Oxidation:          Element: C    pdb-name: C    Scat. Types:   7   6 Mass=12.010735897 B-factor:0.000   
                 Charge=0.000000000  (-na-)  Polarization=1.760000000  [A^3] (considered a chargeless atom and no polarization)  Interactions: yes
                 Anisotropic factor:    0.000 [-] (Absolute), Radius:    0.750 [A], Framework-atom: yes (charge definition not found)
Pseudo Atom[  33] Name C7       Oxidation:          Element: C    pdb-name: C    Scat. Types:   7   6 Mass=12.010735897 B-factor:0.000   
                 Charge=0.000000000  (-na-)  Polarization=1.760000000  [A^3] (considered a chargeless atom and no polarization)  Interactions: yes
                 Anisotropic factor:    0.000 [-] (Absolute), Radius:    0.750 [A], Framework-atom: yes (charge definition not found)
Pseudo Atom[  34] Name C5       Oxidation:          Element: C    pdb-name: C    Scat. Types:   7   6 Mass=12.010735897 B-factor:0.000   
                 Charge=0.000000000  (-na-)  Polarization=1.760000000  [A^3] (considered a chargeless atom and no polarization)  Interactions: yes
                 Anisotropic factor:    0.000 [-] (Absolute), Radius:    0.750 [A], Framework-atom: yes (charge definition not found)
Pseudo Atom[  35] Name C4       Oxidation:          Element: C    pdb-name: C    Scat. Types:   7   6 Mass=12.010735897 B-factor:0.000   
                 Charge=0.000000000  (-na-)  Polarization=1.760000000  [A^3] (considered a chargeless atom and no polarization)  Interactions: yes
                 Anisotropic factor:    0.000 [-] (Absolute), Radius:    0.750 [A], Framework-atom: yes (charge definition not found)
Pseudo Atom[  36] Name C3       Oxidation:          Element: C    pdb-name: C    Scat. Types:   7   6 Mass=12.010735897 B-factor:0.000   
                 Charge=0.000000000  (-na-)  Polarization=1.760000000  [A^3] (considered a chargeless atom and no polarization)  Interactions: yes
                 Anisotropic factor:    0.000 [-] (Absolute), Radius:    0.750 [A], Framework-atom: yes (charge definition not found)
Pseudo Atom[  37] Name C2       Oxidation:          Element: C    pdb-name: C    Scat. Types:   7   6 Mass=12.010735897 B-factor:0.000   
                 Charge=0.000000000  (-na-)  Polarization=1.760000000  [A^3] (considered a chargeless atom and no polarization)  Interactions: yes
                 Anisotropic factor:    0.000 [-] (Absolute), Radius:    0.750 [A], Framework-atom: yes (charge definition not found)
Pseudo Atom[  38] Name C1       Oxidation:          Element: C    pdb-name: C    Scat. Types:   7   6 Mass=12.010735897 B-factor:0.000   
                 Charge=0.000000000  (-na-)  Polarization=1.760000000  [A^3] (considered a chargeless atom and no polarization)  Interactions: yes
                 Anisotropic factor:    0.000 [-] (Absolute), Radius:    0.750 [A], Framework-atom: yes (charge definition not found)
Pseudo Atom[  39] Name O1       Oxidation:          Element: O    pdb-name: O    Scat. Types:   9   8 Mass=15.999404927 B-factor:0.000   
                 Charge=0.000000000  (-na-)  Polarization=0.802000000  [A^3] (considered a chargeless atom and no polarization)  Interactions: yes
                 Anisotropic factor:    0.000 [-] (Absolute), Radius:    0.640 [A], Framework-atom: yes (charge definition not found)
Pseudo Atom[  40] Name H3       Oxidation:          Element: H    pdb-name: H    Scat. Types:   1   1 Mass=1.007940754  B-factor:0.000   
                 Charge=0.000000000  (-na-)  Polarization=0.666793000  [A^3] (considered a chargeless atom and no polarization)  Interactions: yes
                 Anisotropic factor:    0.000 [-] (Absolute), Radius:    0.320 [A], Framework-atom: yes (charge definition not found)
Pseudo Atom[  41] Name H2       Oxidation:          Element: H    pdb-name: H    Scat. Types:   1   1 Mass=1.007940754  B-factor:0.000   
                 Charge=0.000000000  (-na-)  Polarization=0.666793000  [A^3] (considered a chargeless atom and no polarization)  Interactions: yes
                 Anisotropic factor:    0.000 [-] (Absolute), Radius:    0.320 [A], Framework-atom: yes (charge definition not found)
Pseudo Atom[  42] Name H1       Oxidation:          Element: H    pdb-name: H    Scat. Types:   1   1 Mass=1.007940754  B-factor:0.000   
                 Charge=0.000000000  (-na-)  Polarization=0.666793000  [A^3] (considered a chargeless atom and no polarization)  Interactions: yes
                 Anisotropic factor:    0.000 [-] (Absolute), Radius:    0.320 [A], Framework-atom: yes (charge definition not found)


Forcefield: GenericMOFs
===========================================================================
Minimal distance: 1
CutOff VDW : 12.800000 (163.840000)
CutOff VDW switching on: 11.520000 (132.710400)
CutOff charge-charge : 12.000000 (144.000000)
CutOff charge-charge switching on: 7.800000 (60.840000)
CutOff charge-bonddipole : 12.000000 (144.000000)
CutOff charge-bondipole switching on: 8.400000 (70.560000)
CutOff bonddipole-bonddipole : 12.000000 (144.000000)
CutOff bonddipole-bondipole switching on: 9.000000 (81.000000)
Polarization is neglected
All potentials are shifted to zero at the Cutoff

General mixing rule: Lorentz-Berthelot mixing rules are used FIRST for cross terms
0 cross terms are overwritten using the individual mixing rules from the file 'force_field_mixing_rules.def'
and then 0 terms are overwritten using the specific interactions from the file 'force_field.def'

The force field and all the interactions:
     He -      He [LENNARD_JONES] p_0/k_B:  10.90000 [K], p_1: 2.64000 [A], shift/k_B:  -0.00335596 [K], tailcorrection: no
     He - CH4_sp3 [LENNARD_JONES] p_0/k_B:  41.56501 [K], p_1: 3.18000 [A], shift/k_B:  -0.03908307 [K], tailcorrection: no
     He - CH3_sp3 [LENNARD_JONES] p_0/k_B:  34.31035 [K], p_1: 3.20000 [A], shift/k_B:  -0.03349802 [K], tailcorrection: no
     He - CH2_sp3 [LENNARD_JONES] p_0/k_B:  24.70627 [K], p_1: 3.30000 [A], shift/k_B:  -0.02901106 [K], tailcorrection: no
     He -  CH_sp3 [LENNARD_JONES] p_0/k_B:  13.61249 [K], p_1: 3.65500 [A], shift/k_B:  -0.02950032 [K], tailcorrection: no
     He -   C_sp3 [LENNARD_JONES] p_0/k_B:   2.95296 [K], p_1: 4.51000 [A], shift/k_B:  -0.02255724 [K], tailcorrection: no
     He -    H_h2 [ZERO_POTENTIAL]
     He -   H_com [LENNARD_JONES] p_0/k_B:  20.00075 [K], p_1: 2.79900 [A], shift/k_B:  -0.00874614 [K], tailcorrection: no
     He -   C_co2 [LENNARD_JONES] p_0/k_B:  17.15517 [K], p_1: 2.72000 [A], shift/k_B:  -0.00631784 [K], tailcorrection: no
     He -   O_co2 [LENNARD_JONES] p_0/k_B:  29.34451 [K], p_1: 2.84500 [A], shift/k_B:  -0.01415038 [K], tailcorrection: no
     He -    O_o2 [LENNARD_JONES] p_0/k_B:  22.91120 [K], p_1: 2.83657 [A], shift/k_B:  -0.01085331 [K], tailcorrection: no
     He -   O_com [LENNARD_JONES] p_0/k_B:  22.91120 [K], p_1: 2.83657 [A], shift/k_B:  -0.01085331 [K], tailcorrection: no
     He -    N_n2 [LENNARD_JONES] p_0/k_B:  19.80909 [K], p_1: 2.97500 [A], shift/k_B:  -0.01248872 [K], tailcorrection: no
     He -   N_com [ZERO_POTENTIAL]
     He -      Ar [LENNARD_JONES] p_0/k_B:  36.13613 [K], p_1: 2.99000 [A], shift/k_B:  -0.02348002 [K], tailcorrection: no
     He -      Ow [LENNARD_JONES] p_0/k_B:  31.25699 [K], p_1: 2.86850 [A], shift/k_B:  -0.01583513 [K], tailcorrection: no
     He -      Hw [LENNARD_JONES] p_0/k_B:   9.13090 [K], p_1: 2.74321 [A], shift/k_B:  -0.00353856 [K], tailcorrection: no
     He -  C_benz [LENNARD_JONES] p_0/k_B:  18.29289 [K], p_1: 3.12000 [A], shift/k_B:  -0.01534331 [K], tailcorrection: no
     He -  H_benz [LENNARD_JONES] p_0/k_B:  16.65548 [K], p_1: 2.50000 [A], shift/k_B:  -0.00369805 [K], tailcorrection: no
     He -   N_dmf [LENNARD_JONES] p_0/k_B:  29.52965 [K], p_1: 2.92000 [A], shift/k_B:  -0.01664540 [K], tailcorrection: no
     He -  Co_dmf [LENNARD_JONES] p_0/k_B:  23.34524 [K], p_1: 3.17000 [A], shift/k_B:  -0.02154040 [K], tailcorrection: no
     He -  Cm_dmf [LENNARD_JONES] p_0/k_B:  29.52965 [K], p_1: 3.22000 [A], shift/k_B:  -0.02992840 [K], tailcorrection: no
     He -   O_dmf [LENNARD_JONES] p_0/k_B:  33.01515 [K], p_1: 2.80000 [A], shift/k_B:  -0.01446818 [K], tailcorrection: no
     He -   H_dmf [LENNARD_JONES] p_0/k_B:   9.33809 [K], p_1: 2.42000 [A], shift/k_B:  -0.00170581 [K], tailcorrection: no
     He -      Na [LENNARD_JONES] p_0/k_B:  20.60452 [K], p_1: 2.95128 [A], shift/k_B:  -0.01238112 [K], tailcorrection: no
     He -      Cl [LENNARD_JONES] p_0/k_B:  39.41987 [K], p_1: 3.07966 [A], shift/k_B:  -0.03058072 [K], tailcorrection: no
     He -      Kr [LENNARD_JONES] p_0/k_B:  42.58826 [K], p_1: 3.13800 [A], shift/k_B:  -0.03697545 [K], tailcorrection: no
     He -      Xe [LENNARD_JONES] p_0/k_B:  49.08055 [K], p_1: 3.37000 [A], shift/k_B:  -0.06536485 [K], tailcorrection: no
     He -     Zn1 [LENNARD_JONES] p_0/k_B:  26.07971 [K], p_1: 2.55077 [A], shift/k_B:  -0.00653294 [K], tailcorrection: no
     He -      O2 [LENNARD_JONES] p_0/k_B:  22.91120 [K], p_1: 2.83657 [A], shift/k_B:  -0.01085331 [K], tailcorrection: no
     He -      C6 [LENNARD_JONES] p_0/k_B:  22.83928 [K], p_1: 3.05649 [A], shift/k_B:  -0.01693340 [K], tailcorrection: no
     He -      C7 [LENNARD_JONES] p_0/k_B:  22.83928 [K], p_1: 3.05649 [A], shift/k_B:  -0.01693340 [K], tailcorrection: no
     He -      C5 [LENNARD_JONES] p_0/k_B:  22.83928 [K], p_1: 3.05649 [A], shift/k_B:  -0.01693340 [K], tailcorrection: no
     He -      C4 [LENNARD_JONES] p_0/k_B:  22.83928 [K], p_1: 3.05649 [A], shift/k_B:  -0.01693340 [K], tailcorrection: no
     He -      C3 [LENNARD_JONES] p_0/k_B:  22.83928 [K], p_1: 3.05649 [A], shift/k_B:  -0.01693340 [K], tailcorrection: no
     He -      C2 [LENNARD_JONES] p_0/k_B:  22.83928 [K], p_1: 3.05649 [A], shift/k_B:  -0.01693340 [K], tailcorrection: no
     He -      C1 [LENNARD_JONES] p_0/k_B:  22.83928 [K], p_1: 3.05649 [A], shift/k_B:  -0.01693340 [K], tailcorrection: no
     He -      O1 [LENNARD_JONES] p_0/k_B:  22.91120 [K], p_1: 2.83657 [A], shift/k_B:  -0.01085331 [K], tailcorrection: no
     He -      H3 [LENNARD_JONES] p_0/k_B:   9.13090 [K], p_1: 2.74321 [A], shift/k_B:  -0.00353856 [K], tailcorrection: no
     He -      H2 [LENNARD_JONES] p_0/k_B:   9.13090 [K], p_1: 2.74321 [A], shift/k_B:  -0.00353856 [K], tailcorrection: no
     He -      H1 [LENNARD_JONES] p_0/k_B:   9.13090 [K], p_1: 2.74321 [A], shift/k_B:  -0.00353856 [K], tailcorrection: no
CH4_sp3 - CH4_sp3 [LENNARD_JONES] p_0/k_B: 158.50000 [K], p_1: 3.72000 [A], shift/k_B:  -0.38179067 [K], tailcorrection: no
CH4_sp3 - CH3_sp3 [LENNARD_JONES] p_0/k_B: 130.83577 [K], p_1: 3.74000 [A], shift/k_B:  -0.32545127 [K], tailcorrection: no
CH4_sp3 - CH2_sp3 [LENNARD_JONES] p_0/k_B:  94.21253 [K], p_1: 3.84000 [A], shift/k_B:  -0.27452345 [K], tailcorrection: no
CH4_sp3 -  CH_sp3 [LENNARD_JONES] p_0/k_B:  51.90857 [K], p_1: 4.19500 [A], shift/k_B:  -0.25697600 [K], tailcorrection: no
CH4_sp3 -   C_sp3 [LENNARD_JONES] p_0/k_B:  11.26055 [K], p_1: 5.05000 [A], shift/k_B:  -0.16922602 [K], tailcorrection: no
CH4_sp3 -    H_h2 [ZERO_POTENTIAL]
CH4_sp3 -   H_com [LENNARD_JONES] p_0/k_B:  76.26893 [K], p_1: 3.33900 [A], shift/k_B:  -0.09609692 [K], tailcorrection: no
CH4_sp3 -   C_co2 [LENNARD_JONES] p_0/k_B:  65.41789 [K], p_1: 3.26000 [A], shift/k_B:  -0.07139762 [K], tailcorrection: no
CH4_sp3 -   O_co2 [LENNARD_JONES] p_0/k_B: 111.89951 [K], p_1: 3.38500 [A], shift/k_B:  -0.15304946 [K], tailcorrection: no
CH4_sp3 -    O_o2 [LENNARD_JONES] p_0/k_B:  87.36738 [K], p_1: 3.37657 [A], shift/k_B:  -0.11772305 [K], tailcorrection: no
CH4_sp3 -   O_com [LENNARD_JONES] p_0/k_B:  87.36738 [K], p_1: 3.37657 [A], shift/k_B:  -0.11772305 [K], tailcorrection: no
CH4_sp3 -    N_n2 [LENNARD_JONES] p_0/k_B:  75.53807 [K], p_1: 3.51500 [A], shift/k_B:  -0.12951848 [K], tailcorrection: no
CH4_sp3 -   N_com [ZERO_POTENTIAL]
CH4_sp3 -      Ar [LENNARD_JONES] p_0/k_B: 137.79804 [K], p_1: 3.53000 [A], shift/k_B:  -0.24238199 [K], tailcorrection: no
CH4_sp3 -      Ow [LENNARD_JONES] p_0/k_B: 119.19241 [K], p_1: 3.40850 [A], shift/k_B:  -0.16993142 [K], tailcorrection: no
CH4_sp3 -      Hw [LENNARD_JONES] p_0/k_B:  34.81889 [K], p_1: 3.28321 [A], shift/k_B:  -0.03965367 [K], tailcorrection: no
CH4_sp3 -  C_benz [LENNARD_JONES] p_0/k_B:  69.75636 [K], p_1: 3.66000 [A], shift/k_B:  -0.15241688 [K], tailcorrection: no
CH4_sp3 -  H_benz [LENNARD_JONES] p_0/k_B:  63.51240 [K], p_1: 3.04000 [A], shift/k_B:  -0.04558503 [K], tailcorrection: no
CH4_sp3 -   N_dmf [LENNARD_JONES] p_0/k_B: 112.60551 [K], p_1: 3.46000 [A], shift/k_B:  -0.17564951 [K], tailcorrection: no
CH4_sp3 -  Co_dmf [LENNARD_JONES] p_0/k_B:  89.02247 [K], p_1: 3.71000 [A], shift/k_B:  -0.21100157 [K], tailcorrection: no
CH4_sp3 -  Cm_dmf [LENNARD_JONES] p_0/k_B: 112.60551 [K], p_1: 3.76000 [A], shift/k_B:  -0.28920630 [K], tailcorrection: no
CH4_sp3 -   O_dmf [LENNARD_JONES] p_0/k_B: 125.89678 [K], p_1: 3.34000 [A], shift/k_B:  -0.15891193 [K], tailcorrection: no
CH4_sp3 -   H_dmf [LENNARD_JONES] p_0/k_B:  35.60899 [K], p_1: 2.96000 [A], shift/k_B:  -0.02177929 [K], tailcorrection: no
CH4_sp3 -      Na [LENNARD_JONES] p_0/k_B:  78.57129 [K], p_1: 3.49128 [A], shift/k_B:  -0.12935800 [K], tailcorrection: no
CH4_sp3 -      Cl [LENNARD_JONES] p_0/k_B: 150.31992 [K], p_1: 3.61966 [A], shift/k_B:  -0.30732736 [K], tailcorrection: no
CH4_sp3 -      Kr [LENNARD_JONES] p_0/k_B: 162.40197 [K], p_1: 3.67800 [A], shift/k_B:  -0.36544102 [K], tailcorrection: no
CH4_sp3 -      Xe [LENNARD_JONES] p_0/k_B: 187.15902 [K], p_1: 3.91000 [A], shift/k_B:  -0.60774095 [K], tailcorrection: no
CH4_sp3 -     Zn1 [LENNARD_JONES] p_0/k_B:  99.44985 [K], p_1: 3.09077 [A], shift/k_B:  -0.07883563 [K], tailcorrection: no
CH4_sp3 -      O2 [LENNARD_JONES] p_0/k_B:  87.36738 [K], p_1: 3.37657 [A], shift/k_B:  -0.11772305 [K], tailcorrection: no
CH4_sp3 -      C6 [LENNARD_JONES] p_0/k_B:  87.09310 [K], p_1: 3.59649 [A], shift/k_B:  -0.17133533 [K], tailcorrection: no
CH4_sp3 -      C7 [LENNARD_JONES] p_0/k_B:  87.09310 [K], p_1: 3.59649 [A], shift/k_B:  -0.17133533 [K], tailcorrection: no
CH4_sp3 -      C5 [LENNARD_JONES] p_0/k_B:  87.09310 [K], p_1: 3.59649 [A], shift/k_B:  -0.17133533 [K], tailcorrection: no
CH4_sp3 -      C4 [LENNARD_JONES] p_0/k_B:  87.09310 [K], p_1: 3.59649 [A], shift/k_B:  -0.17133533 [K], tailcorrection: no
CH4_sp3 -      C3 [LENNARD_JONES] p_0/k_B:  87.09310 [K], p_1: 3.59649 [A], shift/k_B:  -0.17133533 [K], tailcorrection: no
CH4_sp3 -      C2 [LENNARD_JONES] p_0/k_B:  87.09310 [K], p_1: 3.59649 [A], shift/k_B:  -0.17133533 [K], tailcorrection: no
CH4_sp3 -      C1 [LENNARD_JONES] p_0/k_B:  87.09310 [K], p_1: 3.59649 [A], shift/k_B:  -0.17133533 [K], tailcorrection: no
CH4_sp3 -      O1 [LENNARD_JONES] p_0/k_B:  87.36738 [K], p_1: 3.37657 [A], shift/k_B:  -0.11772305 [K], tailcorrection: no
CH4_sp3 -      H3 [LENNARD_JONES] p_0/k_B:  34.81889 [K], p_1: 3.28321 [A], shift/k_B:  -0.03965367 [K], tailcorrection: no
CH4_sp3 -      H2 [LENNARD_JONES] p_0/k_B:  34.81889 [K], p_1: 3.28321 [A], shift/k_B:  -0.03965367 [K], tailcorrection: no
CH4_sp3 -      H1 [LENNARD_JONES] p_0/k_B:  34.81889 [K], p_1: 3.28321 [A], shift/k_B:  -0.03965367 [K], tailcorrection: no
CH3_sp3 - CH3_sp3 [LENNARD_JONES] p_0/k_B: 108.00000 [K], p_1: 3.76000 [A], shift/k_B:  -0.27737791 [K], tailcorrection: no
CH3_sp3 - CH2_sp3 [LENNARD_JONES] p_0/k_B:  77.76889 [K], p_1: 3.86000 [A], shift/k_B:  -0.23377773 [K], tailcorrection: no
CH3_sp3 -  CH_sp3 [LENNARD_JONES] p_0/k_B:  42.84857 [K], p_1: 4.21500 [A], shift/k_B:  -0.21825685 [K], tailcorrection: no
CH3_sp3 -   C_sp3 [LENNARD_JONES] p_0/k_B:   9.29516 [K], p_1: 5.07000 [A], shift/k_B:  -0.14302910 [K], tailcorrection: no
CH3_sp3 -    H_h2 [ZERO_POTENTIAL]
CH3_sp3 -   H_com [LENNARD_JONES] p_0/k_B:  62.95713 [K], p_1: 3.35900 [A], shift/k_B:  -0.08221731 [K], tailcorrection: no
CH3_sp3 -   C_co2 [LENNARD_JONES] p_0/k_B:  54.00000 [K], p_1: 3.28000 [A], shift/k_B:  -0.06113839 [K], tailcorrection: no
CH3_sp3 -   O_co2 [LENNARD_JONES] p_0/k_B:  92.36883 [K], p_1: 3.40500 [A], shift/k_B:  -0.13088033 [K], tailcorrection: no
CH3_sp3 -    O_o2 [LENNARD_JONES] p_0/k_B:  72.11848 [K], p_1: 3.39657 [A], shift/k_B:  -0.10067980 [K], tailcorrection: no
CH3_sp3 -   O_com [LENNARD_JONES] p_0/k_B:  72.11848 [K], p_1: 3.39657 [A], shift/k_B:  -0.10067980 [K], tailcorrection: no
CH3_sp3 -    N_n2 [LENNARD_JONES] p_0/k_B:  62.35383 [K], p_1: 3.53500 [A], shift/k_B:  -0.11061323 [K], tailcorrection: no
CH3_sp3 -   N_com [ZERO_POTENTIAL]
CH3_sp3 -      Ar [LENNARD_JONES] p_0/k_B: 113.74709 [K], p_1: 3.55000 [A], shift/k_B:  -0.20697261 [K], tailcorrection: no
CH3_sp3 -      Ow [LENNARD_JONES] p_0/k_B:  98.38884 [K], p_1: 3.42850 [A], shift/k_B:  -0.14528157 [K], tailcorrection: no
CH3_sp3 -      Hw [LENNARD_JONES] p_0/k_B:  28.74168 [K], p_1: 3.30321 [A], shift/k_B:  -0.03394698 [K], tailcorrection: no
CH3_sp3 -  C_benz [LENNARD_JONES] p_0/k_B:  57.58125 [K], p_1: 3.68000 [A], shift/k_B:  -0.12999386 [K], tailcorrection: no
CH3_sp3 -  H_benz [LENNARD_JONES] p_0/k_B:  52.42709 [K], p_1: 3.06000 [A], shift/k_B:  -0.03913843 [K], tailcorrection: no
CH3_sp3 -   N_dmf [LENNARD_JONES] p_0/k_B:  92.95160 [K], p_1: 3.48000 [A], shift/k_B:  -0.15009184 [K], tailcorrection: no
CH3_sp3 -  Co_dmf [LENNARD_JONES] p_0/k_B:  73.48469 [K], p_1: 3.73000 [A], shift/k_B:  -0.17988048 [K], tailcorrection: no
CH3_sp3 -  Cm_dmf [LENNARD_JONES] p_0/k_B:  92.95160 [K], p_1: 3.78000 [A], shift/k_B:  -0.24644482 [K], tailcorrection: no
CH3_sp3 -   O_dmf [LENNARD_JONES] p_0/k_B: 103.92305 [K], p_1: 3.36000 [A], shift/k_B:  -0.13595826 [K], tailcorrection: no
CH3_sp3 -   H_dmf [LENNARD_JONES] p_0/k_B:  29.39388 [K], p_1: 2.98000 [A], shift/k_B:  -0.01871912 [K], tailcorrection: no
CH3_sp3 -      Na [LENNARD_JONES] p_0/k_B:  64.85764 [K], p_1: 3.51128 [A], shift/k_B:  -0.11050171 [K], tailcorrection: no
CH3_sp3 -      Cl [LENNARD_JONES] p_0/k_B: 124.08342 [K], p_1: 3.63966 [A], shift/k_B:  -0.26220998 [K], tailcorrection: no
CH3_sp3 -      Kr [LENNARD_JONES] p_0/k_B: 134.05670 [K], p_1: 3.69800 [A], shift/k_B:  -0.31162877 [K], tailcorrection: no
CH3_sp3 -      Xe [LENNARD_JONES] p_0/k_B: 154.49272 [K], p_1: 3.93000 [A], shift/k_B:  -0.51724884 [K], tailcorrection: no
CH3_sp3 -     Zn1 [LENNARD_JONES] p_0/k_B:  82.09210 [K], p_1: 3.11077 [A], shift/k_B:  -0.06764313 [K], tailcorrection: no
CH3_sp3 -      O2 [LENNARD_JONES] p_0/k_B:  72.11848 [K], p_1: 3.39657 [A], shift/k_B:  -0.10067980 [K], tailcorrection: no
CH3_sp3 -      C6 [LENNARD_JONES] p_0/k_B:  71.89207 [K], p_1: 3.61649 [A], shift/k_B:  -0.14621347 [K], tailcorrection: no
CH3_sp3 -      C7 [LENNARD_JONES] p_0/k_B:  71.89207 [K], p_1: 3.61649 [A], shift/k_B:  -0.14621347 [K], tailcorrection: no
CH3_sp3 -      C5 [LENNARD_JONES] p_0/k_B:  71.89207 [K], p_1: 3.61649 [A], shift/k_B:  -0.14621347 [K], tailcorrection: no
CH3_sp3 -      C4 [LENNARD_JONES] p_0/k_B:  71.89207 [K], p_1: 3.61649 [A], shift/k_B:  -0.14621347 [K], tailcorrection: no
CH3_sp3 -      C3 [LENNARD_JONES] p_0/k_B:  71.89207 [K], p_1: 3.61649 [A], shift/k_B:  -0.14621347 [K], tailcorrection: no
CH3_sp3 -      C2 [LENNARD_JONES] p_0/k_B:  71.89207 [K], p_1: 3.61649 [A], shift/k_B:  -0.14621347 [K], tailcorrection: no
CH3_sp3 -      C1 [LENNARD_JONES] p_0/k_B:  71.89207 [K], p_1: 3.61649 [A], shift/k_B:  -0.14621347 [K], tailcorrection: no
CH3_sp3 -      O1 [LENNARD_JONES] p_0/k_B:  72.11848 [K], p_1: 3.39657 [A], shift/k_B:  -0.10067980 [K], tailcorrection: no
CH3_sp3 -      H3 [LENNARD_JONES] p_0/k_B:  28.74168 [K], p_1: 3.30321 [A], shift/k_B:  -0.03394698 [K], tailcorrection: no
CH3_sp3 -      H2 [LENNARD_JONES] p_0/k_B:  28.74168 [K], p_1: 3.30321 [A], shift/k_B:  -0.03394698 [K], tailcorrection: no
CH3_sp3 -      H1 [LENNARD_JONES] p_0/k_B:  28.74168 [K], p_1: 3.30321 [A], shift/k_B:  -0.03394698 [K], tailcorrection: no
CH2_sp3 - CH2_sp3 [LENNARD_JONES] p_0/k_B:  56.00000 [K], p_1: 3.96000 [A], shift/k_B:  -0.19623585 [K], tailcorrection: no
CH2_sp3 -  CH_sp3 [LENNARD_JONES] p_0/k_B:  30.85450 [K], p_1: 4.31500 [A], shift/k_B:  -0.18086960 [K], tailcorrection: no
CH2_sp3 -   C_sp3 [LENNARD_JONES] p_0/k_B:   6.69328 [K], p_1: 5.17000 [A], shift/k_B:  -0.11574245 [K], tailcorrection: no
CH2_sp3 -    H_h2 [ZERO_POTENTIAL]
CH2_sp3 -   H_com [LENNARD_JONES] p_0/k_B:  45.33431 [K], p_1: 3.45900 [A], shift/k_B:  -0.07059297 [K], tailcorrection: no
CH2_sp3 -   C_co2 [LENNARD_JONES] p_0/k_B:  38.88444 [K], p_1: 3.38000 [A], shift/k_B:  -0.05271437 [K], tailcorrection: no
CH2_sp3 -   O_co2 [LENNARD_JONES] p_0/k_B:  66.51316 [K], p_1: 3.50500 [A], shift/k_B:  -0.11211217 [K], tailcorrection: no
CH2_sp3 -    O_o2 [LENNARD_JONES] p_0/k_B:  51.93124 [K], p_1: 3.49657 [A], shift/k_B:  -0.08627907 [K], tailcorrection: no
CH2_sp3 -   O_com [LENNARD_JONES] p_0/k_B:  51.93124 [K], p_1: 3.49657 [A], shift/k_B:  -0.08627907 [K], tailcorrection: no
CH2_sp3 -    N_n2 [LENNARD_JONES] p_0/k_B:  44.89989 [K], p_1: 3.63500 [A], shift/k_B:  -0.09415515 [K], tailcorrection: no
CH2_sp3 -   N_com [ZERO_POTENTIAL]
CH2_sp3 -      Ar [LENNARD_JONES] p_0/k_B:  81.90726 [K], p_1: 3.65000 [A], shift/k_B:  -0.17605413 [K], tailcorrection: no
CH2_sp3 -      Ow [LENNARD_JONES] p_0/k_B:  70.84806 [K], p_1: 3.52850 [A], shift/k_B:  -0.12430204 [K], tailcorrection: no
CH2_sp3 -      Hw [LENNARD_JONES] p_0/k_B:  20.69638 [K], p_1: 3.40321 [A], shift/k_B:  -0.02923301 [K], tailcorrection: no
CH2_sp3 -  C_benz [LENNARD_JONES] p_0/k_B:  41.46324 [K], p_1: 3.78000 [A], shift/k_B:  -0.10993248 [K], tailcorrection: no
CH2_sp3 -  H_benz [LENNARD_JONES] p_0/k_B:  37.75182 [K], p_1: 3.16000 [A], shift/k_B:  -0.03417923 [K], tailcorrection: no
CH2_sp3 -   N_dmf [LENNARD_JONES] p_0/k_B:  66.93280 [K], p_1: 3.58000 [A], shift/k_B:  -0.12809418 [K], tailcorrection: no
CH2_sp3 -  Co_dmf [LENNARD_JONES] p_0/k_B:  52.91503 [K], p_1: 3.83000 [A], shift/k_B:  -0.15179590 [K], tailcorrection: no
CH2_sp3 -  Cm_dmf [LENNARD_JONES] p_0/k_B:  66.93280 [K], p_1: 3.88000 [A], shift/k_B:  -0.20753555 [K], tailcorrection: no
CH2_sp3 -   O_dmf [LENNARD_JONES] p_0/k_B:  74.83315 [K], p_1: 3.46000 [A], shift/k_B:  -0.11672969 [K], tailcorrection: no
CH2_sp3 -   H_dmf [LENNARD_JONES] p_0/k_B:  21.16601 [K], p_1: 3.08000 [A], shift/k_B:  -0.01643082 [K], tailcorrection: no
CH2_sp3 -      Na [LENNARD_JONES] p_0/k_B:  46.70284 [K], p_1: 3.61128 [A], shift/k_B:  -0.09416540 [K], tailcorrection: no
CH2_sp3 -      Cl [LENNARD_JONES] p_0/k_B:  89.35028 [K], p_1: 3.73966 [A], shift/k_B:  -0.22213583 [K], tailcorrection: no
CH2_sp3 -      Kr [LENNARD_JONES] p_0/k_B:  96.53186 [K], p_1: 3.79800 [A], shift/k_B:  -0.26333230 [K], tailcorrection: no
CH2_sp3 -      Xe [LENNARD_JONES] p_0/k_B: 111.24747 [K], p_1: 4.03000 [A], shift/k_B:  -0.43300946 [K], tailcorrection: no
CH2_sp3 -     Zn1 [LENNARD_JONES] p_0/k_B:  59.11307 [K], p_1: 3.21077 [A], shift/k_B:  -0.05888907 [K], tailcorrection: no
CH2_sp3 -      O2 [LENNARD_JONES] p_0/k_B:  51.93124 [K], p_1: 3.49657 [A], shift/k_B:  -0.08627907 [K], tailcorrection: no
CH2_sp3 -      C6 [LENNARD_JONES] p_0/k_B:  51.76821 [K], p_1: 3.71650 [A], shift/k_B:  -0.12399504 [K], tailcorrection: no
CH2_sp3 -      C7 [LENNARD_JONES] p_0/k_B:  51.76821 [K], p_1: 3.71650 [A], shift/k_B:  -0.12399504 [K], tailcorrection: no
CH2_sp3 -      C5 [LENNARD_JONES] p_0/k_B:  51.76821 [K], p_1: 3.71650 [A], shift/k_B:  -0.12399504 [K], tailcorrection: no
CH2_sp3 -      C4 [LENNARD_JONES] p_0/k_B:  51.76821 [K], p_1: 3.71650 [A], shift/k_B:  -0.12399504 [K], tailcorrection: no
CH2_sp3 -      C3 [LENNARD_JONES] p_0/k_B:  51.76821 [K], p_1: 3.71650 [A], shift/k_B:  -0.12399504 [K], tailcorrection: no
CH2_sp3 -      C2 [LENNARD_JONES] p_0/k_B:  51.76821 [K], p_1: 3.71650 [A], shift/k_B:  -0.12399504 [K], tailcorrection: no
CH2_sp3 -      C1 [LENNARD_JONES] p_0/k_B:  51.76821 [K], p_1: 3.71650 [A], shift/k_B:  -0.12399504 [K], tailcorrection: no
CH2_sp3 -      O1 [LENNARD_JONES] p_0/k_B:  51.93124 [K], p_1: 3.49657 [A], shift/k_B:  -0.08627907 [K], tailcorrection: no
CH2_sp3 -      H3 [LENNARD_JONES] p_0/k_B:  20.69638 [K], p_1: 3.40321 [A], shift/k_B:  -0.02923301 [K], tailcorrection: no
CH2_sp3 -      H2 [LENNARD_JONES] p_0/k_B:  20.69638 [K], p_1: 3.40321 [A], shift/k_B:  -0.02923301 [K], tailcorrection: no
CH2_sp3 -      H1 [LENNARD_JONES] p_0/k_B:  20.69638 [K], p_1: 3.40321 [A], shift/k_B:  -0.02923301 [K], tailcorrection: no
 CH_sp3 -  CH_sp3 [LENNARD_JONES] p_0/k_B:  17.00000 [K], p_1: 4.67000 [A], shift/k_B:  -0.16000180 [K], tailcorrection: no
 CH_sp3 -   C_sp3 [LENNARD_JONES] p_0/k_B:   3.68782 [K], p_1: 5.52500 [A], shift/k_B:  -0.09478627 [K], tailcorrection: no
 CH_sp3 -    H_h2 [ZERO_POTENTIAL]
 CH_sp3 -   H_com [LENNARD_JONES] p_0/k_B:  24.97799 [K], p_1: 3.81400 [A], shift/k_B:  -0.06987756 [K], tailcorrection: no
 CH_sp3 -   C_co2 [LENNARD_JONES] p_0/k_B:  21.42429 [K], p_1: 3.73500 [A], shift/k_B:  -0.05286667 [K], tailcorrection: no
 CH_sp3 -   O_co2 [LENNARD_JONES] p_0/k_B:  36.64696 [K], p_1: 3.86000 [A], shift/k_B:  -0.11016287 [K], tailcorrection: no
 CH_sp3 -    O_o2 [LENNARD_JONES] p_0/k_B:  28.61272 [K], p_1: 3.85157 [A], shift/k_B:  -0.08489204 [K], tailcorrection: no
 CH_sp3 -   O_com [LENNARD_JONES] p_0/k_B:  28.61272 [K], p_1: 3.85157 [A], shift/k_B:  -0.08489204 [K], tailcorrection: no
 CH_sp3 -    N_n2 [LENNARD_JONES] p_0/k_B:  24.73863 [K], p_1: 3.99000 [A], shift/k_B:  -0.09070153 [K], tailcorrection: no
 CH_sp3 -   N_com [ZERO_POTENTIAL]
 CH_sp3 -      Ar [LENNARD_JONES] p_0/k_B:  45.12870 [K], p_1: 4.00500 [A], shift/k_B:  -0.16922342 [K], tailcorrection: no
 CH_sp3 -      Ow [LENNARD_JONES] p_0/k_B:  39.03538 [K], p_1: 3.88350 [A], shift/k_B:  -0.12169132 [K], tailcorrection: no
 CH_sp3 -      Hw [LENNARD_JONES] p_0/k_B:  11.40315 [K], p_1: 3.75821 [A], shift/k_B:  -0.02920337 [K], tailcorrection: no
 CH_sp3 -  C_benz [LENNARD_JONES] p_0/k_B:  22.84513 [K], p_1: 4.13500 [A], shift/k_B:  -0.10374162 [K], tailcorrection: no
 CH_sp3 -  H_benz [LENNARD_JONES] p_0/k_B:  20.80024 [K], p_1: 3.51500 [A], shift/k_B:  -0.03566434 [K], tailcorrection: no
 CH_sp3 -   N_dmf [LENNARD_JONES] p_0/k_B:  36.87818 [K], p_1: 3.93500 [A], shift/k_B:  -0.12441458 [K], tailcorrection: no
 CH_sp3 -  Co_dmf [LENNARD_JONES] p_0/k_B:  29.15476 [K], p_1: 4.18500 [A], shift/k_B:  -0.14228253 [K], tailcorrection: no
 CH_sp3 -  Cm_dmf [LENNARD_JONES] p_0/k_B:  36.87818 [K], p_1: 4.23500 [A], shift/k_B:  -0.19325024 [K], tailcorrection: no
 CH_sp3 -   O_dmf [LENNARD_JONES] p_0/k_B:  41.23106 [K], p_1: 3.81500 [A], shift/k_B:  -0.11552802 [K], tailcorrection: no
 CH_sp3 -   H_dmf [LENNARD_JONES] p_0/k_B:  11.66190 [K], p_1: 3.43500 [A], shift/k_B:  -0.01741678 [K], tailcorrection: no
 CH_sp3 -      Na [LENNARD_JONES] p_0/k_B:  25.73201 [K], p_1: 3.96628 [A], shift/k_B:  -0.09103104 [K], tailcorrection: no
 CH_sp3 -      Cl [LENNARD_JONES] p_0/k_B:  49.22960 [K], p_1: 4.09466 [A], shift/k_B:  -0.21079871 [K], tailcorrection: no
 CH_sp3 -      Kr [LENNARD_JONES] p_0/k_B:  53.18646 [K], p_1: 4.15300 [A], shift/k_B:  -0.24789396 [K], tailcorrection: no
 CH_sp3 -      Xe [LENNARD_JONES] p_0/k_B:  61.29437 [K], p_1: 4.38500 [A], shift/k_B:  -0.39567242 [K], tailcorrection: no
 CH_sp3 -     Zn1 [LENNARD_JONES] p_0/k_B:  32.56972 [K], p_1: 3.56577 [A], shift/k_B:  -0.06086039 [K], tailcorrection: no
 CH_sp3 -      O2 [LENNARD_JONES] p_0/k_B:  28.61272 [K], p_1: 3.85157 [A], shift/k_B:  -0.08489204 [K], tailcorrection: no
 CH_sp3 -      C6 [LENNARD_JONES] p_0/k_B:  28.52289 [K], p_1: 4.07149 [A], shift/k_B:  -0.11805030 [K], tailcorrection: no
 CH_sp3 -      C7 [LENNARD_JONES] p_0/k_B:  28.52289 [K], p_1: 4.07149 [A], shift/k_B:  -0.11805030 [K], tailcorrection: no
 CH_sp3 -      C5 [LENNARD_JONES] p_0/k_B:  28.52289 [K], p_1: 4.07149 [A], shift/k_B:  -0.11805030 [K], tailcorrection: no
 CH_sp3 -      C4 [LENNARD_JONES] p_0/k_B:  28.52289 [K], p_1: 4.07149 [A], shift/k_B:  -0.11805030 [K], tailcorrection: no
 CH_sp3 -      C3 [LENNARD_JONES] p_0/k_B:  28.52289 [K], p_1: 4.07149 [A], shift/k_B:  -0.11805030 [K], tailcorrection: no
 CH_sp3 -      C2 [LENNARD_JONES] p_0/k_B:  28.52289 [K], p_1: 4.07149 [A], shift/k_B:  -0.11805030 [K], tailcorrection: no
 CH_sp3 -      C1 [LENNARD_JONES] p_0/k_B:  28.52289 [K], p_1: 4.07149 [A], shift/k_B:  -0.11805030 [K], tailcorrection: no
 CH_sp3 -      O1 [LENNARD_JONES] p_0/k_B:  28.61272 [K], p_1: 3.85157 [A], shift/k_B:  -0.08489204 [K], tailcorrection: no
 CH_sp3 -      H3 [LENNARD_JONES] p_0/k_B:  11.40315 [K], p_1: 3.75821 [A], shift/k_B:  -0.02920337 [K], tailcorrection: no
 CH_sp3 -      H2 [LENNARD_JONES] p_0/k_B:  11.40315 [K], p_1: 3.75821 [A], shift/k_B:  -0.02920337 [K], tailcorrection: no
 CH_sp3 -      H1 [LENNARD_JONES] p_0/k_B:  11.40315 [K], p_1: 3.75821 [A], shift/k_B:  -0.02920337 [K], tailcorrection: no
  C_sp3 -   C_sp3 [LENNARD_JONES] p_0/k_B:   0.80000 [K], p_1: 6.38000 [A], shift/k_B:  -0.04831734 [K], tailcorrection: no
  C_sp3 -    H_h2 [ZERO_POTENTIAL]
  C_sp3 -   H_com [LENNARD_JONES] p_0/k_B:   5.41849 [K], p_1: 4.66900 [A], shift/k_B:  -0.05093277 [K], tailcorrection: no
  C_sp3 -   C_co2 [LENNARD_JONES] p_0/k_B:   4.64758 [K], p_1: 4.59000 [A], shift/k_B:  -0.03944380 [K], tailcorrection: no
  C_sp3 -   O_co2 [LENNARD_JONES] p_0/k_B:   7.94984 [K], p_1: 4.71500 [A], shift/k_B:  -0.07924330 [K], tailcorrection: no
  C_sp3 -    O_o2 [LENNARD_JONES] p_0/k_B:   6.20697 [K], p_1: 4.70657 [A], shift/k_B:  -0.06121178 [K], tailcorrection: no
  C_sp3 -   O_com [LENNARD_JONES] p_0/k_B:   6.20697 [K], p_1: 4.70657 [A], shift/k_B:  -0.06121178 [K], tailcorrection: no
  C_sp3 -    N_n2 [LENNARD_JONES] p_0/k_B:   5.36656 [K], p_1: 4.84500 [A], shift/k_B:  -0.06294771 [K], tailcorrection: no
  C_sp3 -   N_com [ZERO_POTENTIAL]
  C_sp3 -      Ar [LENNARD_JONES] p_0/k_B:   9.78979 [K], p_1: 4.86000 [A], shift/k_B:  -0.11697365 [K], tailcorrection: no
  C_sp3 -      Ow [LENNARD_JONES] p_0/k_B:   8.46796 [K], p_1: 4.73850 [A], shift/k_B:  -0.08695713 [K], tailcorrection: no
  C_sp3 -      Hw [LENNARD_JONES] p_0/k_B:   2.47369 [K], p_1: 4.61321 [A], shift/k_B:  -0.02163775 [K], tailcorrection: no
  C_sp3 -  C_benz [LENNARD_JONES] p_0/k_B:   4.95580 [K], p_1: 4.99000 [A], shift/k_B:  -0.06934106 [K], tailcorrection: no
  C_sp3 -  H_benz [LENNARD_JONES] p_0/k_B:   4.51221 [K], p_1: 4.37000 [A], shift/k_B:  -0.02853576 [K], tailcorrection: no
  C_sp3 -   N_dmf [LENNARD_JONES] p_0/k_B:   8.00000 [K], p_1: 4.79000 [A], shift/k_B:  -0.08764131 [K], tailcorrection: no
  C_sp3 -  Co_dmf [LENNARD_JONES] p_0/k_B:   6.32456 [K], p_1: 5.04000 [A], shift/k_B:  -0.09392731 [K], tailcorrection: no
  C_sp3 -  Cm_dmf [LENNARD_JONES] p_0/k_B:   8.00000 [K], p_1: 5.09000 [A], shift/k_B:  -0.12603066 [K], tailcorrection: no
  C_sp3 -   O_dmf [LENNARD_JONES] p_0/k_B:   8.94427 [K], p_1: 4.67000 [A], shift/k_B:  -0.08418233 [K], tailcorrection: no
  C_sp3 -   H_dmf [LENNARD_JONES] p_0/k_B:   2.52982 [K], p_1: 4.29000 [A], shift/k_B:  -0.01432247 [K], tailcorrection: no
  C_sp3 -      Na [LENNARD_JONES] p_0/k_B:   5.58206 [K], p_1: 4.82128 [A], shift/k_B:  -0.06358089 [K], tailcorrection: no
  C_sp3 -      Cl [LENNARD_JONES] p_0/k_B:  10.67940 [K], p_1: 4.94966 [A], shift/k_B:  -0.14234585 [K], tailcorrection: no
  C_sp3 -      Kr [LENNARD_JONES] p_0/k_B:  11.53776 [K], p_1: 5.00800 [A], shift/k_B:  -0.16494804 [K], tailcorrection: no
  C_sp3 -      Xe [LENNARD_JONES] p_0/k_B:  13.29662 [K], p_1: 5.24000 [A], shift/k_B:  -0.24916099 [K], tailcorrection: no
  C_sp3 -     Zn1 [LENNARD_JONES] p_0/k_B:   7.06536 [K], p_1: 4.42077 [A], shift/k_B:  -0.04788367 [K], tailcorrection: no
  C_sp3 -      O2 [LENNARD_JONES] p_0/k_B:   6.20697 [K], p_1: 4.70657 [A], shift/k_B:  -0.06121178 [K], tailcorrection: no
  C_sp3 -      C6 [LENNARD_JONES] p_0/k_B:   6.18748 [K], p_1: 4.92650 [A], shift/k_B:  -0.08019153 [K], tailcorrection: no
  C_sp3 -      C7 [LENNARD_JONES] p_0/k_B:   6.18748 [K], p_1: 4.92650 [A], shift/k_B:  -0.08019153 [K], tailcorrection: no
  C_sp3 -      C5 [LENNARD_JONES] p_0/k_B:   6.18748 [K], p_1: 4.92650 [A], shift/k_B:  -0.08019153 [K], tailcorrection: no
  C_sp3 -      C4 [LENNARD_JONES] p_0/k_B:   6.18748 [K], p_1: 4.92650 [A], shift/k_B:  -0.08019153 [K], tailcorrection: no
  C_sp3 -      C3 [LENNARD_JONES] p_0/k_B:   6.18748 [K], p_1: 4.92650 [A], shift/k_B:  -0.08019153 [K], tailcorrection: no
  C_sp3 -      C2 [LENNARD_JONES] p_0/k_B:   6.18748 [K], p_1: 4.92650 [A], shift/k_B:  -0.08019153 [K], tailcorrection: no
  C_sp3 -      C1 [LENNARD_JONES] p_0/k_B:   6.18748 [K], p_1: 4.92650 [A], shift/k_B:  -0.08019153 [K], tailcorrection: no
  C_sp3 -      O1 [LENNARD_JONES] p_0/k_B:   6.20697 [K], p_1: 4.70657 [A], shift/k_B:  -0.06121178 [K], tailcorrection: no
  C_sp3 -      H3 [LENNARD_JONES] p_0/k_B:   2.47369 [K], p_1: 4.61321 [A], shift/k_B:  -0.02163775 [K], tailcorrection: no
  C_sp3 -      H2 [LENNARD_JONES] p_0/k_B:   2.47369 [K], p_1: 4.61321 [A], shift/k_B:  -0.02163775 [K], tailcorrection: no
  C_sp3 -      H1 [LENNARD_JONES] p_0/k_B:   2.47369 [K], p_1: 4.61321 [A], shift/k_B:  -0.02163775 [K], tailcorrection: no
   H_h2 -    H_h2 [ZERO_POTENTIAL]
   H_h2 -   H_com [ZERO_POTENTIAL]
   H_h2 -   C_co2 [ZERO_POTENTIAL]
   H_h2 -   O_co2 [ZERO_POTENTIAL]
   H_h2 -    O_o2 [ZERO_POTENTIAL]
   H_h2 -   O_com [ZERO_POTENTIAL]
   H_h2 -    N_n2 [ZERO_POTENTIAL]
   H_h2 -   N_com [ZERO_POTENTIAL]
   H_h2 -      Ar [ZERO_POTENTIAL]
   H_h2 -      Ow [ZERO_POTENTIAL]
   H_h2 -      Hw [ZERO_POTENTIAL]
   H_h2 -      Lw [ZERO_POTENTIAL]
   H_h2 -  C_benz [ZERO_POTENTIAL]
   H_h2 -  H_benz [ZERO_POTENTIAL]
   H_h2 -   N_dmf [ZERO_POTENTIAL]
   H_h2 -  Co_dmf [ZERO_POTENTIAL]
   H_h2 -  Cm_dmf [ZERO_POTENTIAL]
   H_h2 -   O_dmf [ZERO_POTENTIAL]
   H_h2 -   H_dmf [ZERO_POTENTIAL]
   H_h2 -      Na [ZERO_POTENTIAL]
   H_h2 -      Cl [ZERO_POTENTIAL]
   H_h2 -      Kr [ZERO_POTENTIAL]
   H_h2 -      Xe [ZERO_POTENTIAL]
   H_h2 -     Zn1 [ZERO_POTENTIAL]
   H_h2 -      O2 [ZERO_POTENTIAL]
   H_h2 -      C6 [ZERO_POTENTIAL]
   H_h2 -      C7 [ZERO_POTENTIAL]
   H_h2 -      C5 [ZERO_POTENTIAL]
   H_h2 -      C4 [ZERO_POTENTIAL]
   H_h2 -      C3 [ZERO_POTENTIAL]
   H_h2 -      C2 [ZERO_POTENTIAL]
   H_h2 -      C1 [ZERO_POTENTIAL]
   H_h2 -      O1 [ZERO_POTENTIAL]
   H_h2 -      H3 [ZERO_POTENTIAL]
   H_h2 -      H2 [ZERO_POTENTIAL]
   H_h2 -      H1 [ZERO_POTENTIAL]
  H_com -   H_com [LENNARD_JONES] p_0/k_B:  36.70000 [K], p_1: 2.95800 [A], shift/k_B:  -0.02235574 [K], tailcorrection: no
  H_com -   C_co2 [LENNARD_JONES] p_0/k_B:  31.47856 [K], p_1: 2.87900 [A], shift/k_B:  -0.01630080 [K], tailcorrection: no
  H_com -   O_co2 [LENNARD_JONES] p_0/k_B:  53.84515 [K], p_1: 3.00400 [A], shift/k_B:  -0.03598104 [K], tailcorrection: no
  H_com -    O_o2 [LENNARD_JONES] p_0/k_B:  42.04048 [K], p_1: 2.99558 [A], shift/k_B:  -0.02762344 [K], tailcorrection: no
  H_com -   O_com [LENNARD_JONES] p_0/k_B:  42.04048 [K], p_1: 2.99558 [A], shift/k_B:  -0.02762344 [K], tailcorrection: no
  H_com -    N_n2 [LENNARD_JONES] p_0/k_B:  36.34831 [K], p_1: 3.13400 [A], shift/k_B:  -0.03131734 [K], tailcorrection: no
  H_com -   N_com [ZERO_POTENTIAL]
  H_com -      Ar [LENNARD_JONES] p_0/k_B:  66.30731 [K], p_1: 3.14900 [A], shift/k_B:  -0.05878971 [K], tailcorrection: no
  H_com -      Ow [LENNARD_JONES] p_0/k_B:  57.35443 [K], p_1: 3.02750 [A], shift/k_B:  -0.04016022 [K], tailcorrection: no
  H_com -      Hw [LENNARD_JONES] p_0/k_B:  16.75457 [K], p_1: 2.90221 [A], shift/k_B:  -0.00910432 [K], tailcorrection: no
  H_com -  C_benz [LENNARD_JONES] p_0/k_B:  33.56620 [K], p_1: 3.27900 [A], shift/k_B:  -0.03793396 [K], tailcorrection: no
  H_com -  H_benz [LENNARD_JONES] p_0/k_B:  30.56166 [K], p_1: 2.65900 [A], shift/k_B:  -0.00982318 [K], tailcorrection: no
  H_com -   N_dmf [LENNARD_JONES] p_0/k_B:  54.18487 [K], p_1: 3.07900 [A], shift/k_B:  -0.04198094 [K], tailcorrection: no
  H_com -  Co_dmf [LENNARD_JONES] p_0/k_B:  42.83690 [K], p_1: 3.32900 [A], shift/k_B:  -0.05301107 [K], tailcorrection: no
  H_com -  Cm_dmf [LENNARD_JONES] p_0/k_B:  54.18487 [K], p_1: 3.37900 [A], shift/k_B:  -0.07332640 [K], tailcorrection: no
  H_com -   O_dmf [LENNARD_JONES] p_0/k_B:  60.58052 [K], p_1: 2.95900 [A], shift/k_B:  -0.03697743 [K], tailcorrection: no
  H_com -   H_dmf [LENNARD_JONES] p_0/k_B:  17.13476 [K], p_1: 2.57900 [A], shift/k_B:  -0.00458519 [K], tailcorrection: no
  H_com -      Na [LENNARD_JONES] p_0/k_B:  37.80788 [K], p_1: 3.11028 [A], shift/k_B:  -0.03112361 [K], tailcorrection: no
  H_com -      Cl [LENNARD_JONES] p_0/k_B:  72.33274 [K], p_1: 3.23866 [A], shift/k_B:  -0.07589502 [K], tailcorrection: no
  H_com -      Kr [LENNARD_JONES] p_0/k_B:  78.14653 [K], p_1: 3.29700 [A], shift/k_B:  -0.09126341 [K], tailcorrection: no
  H_com -      Xe [LENNARD_JONES] p_0/k_B:  90.05942 [K], p_1: 3.52900 [A], shift/k_B:  -0.15814247 [K], tailcorrection: no
  H_com -     Zn1 [LENNARD_JONES] p_0/k_B:  47.85447 [K], p_1: 2.70978 [A], shift/k_B:  -0.01722991 [K], tailcorrection: no
  H_com -      O2 [LENNARD_JONES] p_0/k_B:  42.04048 [K], p_1: 2.99558 [A], shift/k_B:  -0.02762344 [K], tailcorrection: no
  H_com -      C6 [LENNARD_JONES] p_0/k_B:  41.90850 [K], p_1: 3.21549 [A], shift/k_B:  -0.04211921 [K], tailcorrection: no
  H_com -      C7 [LENNARD_JONES] p_0/k_B:  41.90850 [K], p_1: 3.21549 [A], shift/k_B:  -0.04211921 [K], tailcorrection: no
  H_com -      C5 [LENNARD_JONES] p_0/k_B:  41.90850 [K], p_1: 3.21549 [A], shift/k_B:  -0.04211921 [K], tailcorrection: no
  H_com -      C4 [LENNARD_JONES] p_0/k_B:  41.90850 [K], p_1: 3.21549 [A], shift/k_B:  -0.04211921 [K], tailcorrection: no
  H_com -      C3 [LENNARD_JONES] p_0/k_B:  41.90850 [K], p_1: 3.21549 [A], shift/k_B:  -0.04211921 [K], tailcorrection: no
  H_com -      C2 [LENNARD_JONES] p_0/k_B:  41.90850 [K], p_1: 3.21549 [A], shift/k_B:  -0.04211921 [K], tailcorrection: no
  H_com -      C1 [LENNARD_JONES] p_0/k_B:  41.90850 [K], p_1: 3.21549 [A], shift/k_B:  -0.04211921 [K], tailcorrection: no
  H_com -      O1 [LENNARD_JONES] p_0/k_B:  42.04048 [K], p_1: 2.99558 [A], shift/k_B:  -0.02762344 [K], tailcorrection: no
  H_com -      H3 [LENNARD_JONES] p_0/k_B:  16.75457 [K], p_1: 2.90221 [A], shift/k_B:  -0.00910432 [K], tailcorrection: no
  H_com -      H2 [LENNARD_JONES] p_0/k_B:  16.75457 [K], p_1: 2.90221 [A], shift/k_B:  -0.00910432 [K], tailcorrection: no
  H_com -      H1 [LENNARD_JONES] p_0/k_B:  16.75457 [K], p_1: 2.90221 [A], shift/k_B:  -0.00910432 [K], tailcorrection: no
  C_co2 -   C_co2 [LENNARD_JONES] p_0/k_B:  27.00000 [K], p_1: 2.80000 [A], shift/k_B:  -0.01183217 [K], tailcorrection: no
  C_co2 -   O_co2 [LENNARD_JONES] p_0/k_B:  46.18441 [K], p_1: 2.92500 [A], shift/k_B:  -0.02630201 [K], tailcorrection: no
  C_co2 -    O_o2 [LENNARD_JONES] p_0/k_B:  36.05924 [K], p_1: 2.91657 [A], shift/k_B:  -0.02018342 [K], tailcorrection: no
  C_co2 -   O_com [LENNARD_JONES] p_0/k_B:  36.05924 [K], p_1: 2.91657 [A], shift/k_B:  -0.02018342 [K], tailcorrection: no
  C_co2 -    N_n2 [LENNARD_JONES] p_0/k_B:  31.17691 [K], p_1: 3.05500 [A], shift/k_B:  -0.02304731 [K], tailcorrection: no
  C_co2 -   N_com [ZERO_POTENTIAL]
  C_co2 -      Ar [LENNARD_JONES] p_0/k_B:  56.87354 [K], p_1: 3.07000 [A], shift/k_B:  -0.04329702 [K], tailcorrection: no
  C_co2 -      Ow [LENNARD_JONES] p_0/k_B:  49.19442 [K], p_1: 2.94850 [A], shift/k_B:  -0.02939395 [K], tailcorrection: no
  C_co2 -      Hw [LENNARD_JONES] p_0/k_B:  14.37084 [K], p_1: 2.82321 [A], shift/k_B:  -0.00661746 [K], tailcorrection: no
  C_co2 -  C_benz [LENNARD_JONES] p_0/k_B:  28.79062 [K], p_1: 3.20000 [A], shift/k_B:  -0.02810898 [K], tailcorrection: no
  C_co2 -  H_benz [LENNARD_JONES] p_0/k_B:  26.21355 [K], p_1: 2.58000 [A], shift/k_B:  -0.00703097 [K], tailcorrection: no
  C_co2 -   N_dmf [LENNARD_JONES] p_0/k_B:  46.47580 [K], p_1: 3.00000 [A], shift/k_B:  -0.03080935 [K], tailcorrection: no
  C_co2 -  Co_dmf [LENNARD_JONES] p_0/k_B:  36.74235 [K], p_1: 3.25000 [A], shift/k_B:  -0.03936868 [K], tailcorrection: no
  C_co2 -  Cm_dmf [LENNARD_JONES] p_0/k_B:  46.47580 [K], p_1: 3.30000 [A], shift/k_B:  -0.05457367 [K], tailcorrection: no
  C_co2 -   O_dmf [LENNARD_JONES] p_0/k_B:  51.96152 [K], p_1: 2.88000 [A], shift/k_B:  -0.02696377 [K], tailcorrection: no
  C_co2 -   H_dmf [LENNARD_JONES] p_0/k_B:  14.69694 [K], p_1: 2.50000 [A], shift/k_B:  -0.00326319 [K], tailcorrection: no
  C_co2 -      Na [LENNARD_JONES] p_0/k_B:  32.42882 [K], p_1: 3.03128 [A], shift/k_B:  -0.02287763 [K], tailcorrection: no
  C_co2 -      Cl [LENNARD_JONES] p_0/k_B:  62.04171 [K], p_1: 3.15966 [A], shift/k_B:  -0.05613423 [K], tailcorrection: no
  C_co2 -      Kr [LENNARD_JONES] p_0/k_B:  67.02835 [K], p_1: 3.21800 [A], shift/k_B:  -0.06768077 [K], tailcorrection: no
  C_co2 -      Xe [LENNARD_JONES] p_0/k_B:  77.24636 [K], p_1: 3.45000 [A], shift/k_B:  -0.11842032 [K], tailcorrection: no
  C_co2 -     Zn1 [LENNARD_JONES] p_0/k_B:  41.04605 [K], p_1: 2.63077 [A], shift/k_B:  -0.01237488 [K], tailcorrection: no
  C_co2 -      O2 [LENNARD_JONES] p_0/k_B:  36.05924 [K], p_1: 2.91657 [A], shift/k_B:  -0.02018342 [K], tailcorrection: no
  C_co2 -      C6 [LENNARD_JONES] p_0/k_B:  35.94603 [K], p_1: 3.13650 [A], shift/k_B:  -0.03111894 [K], tailcorrection: no
  C_co2 -      C7 [LENNARD_JONES] p_0/k_B:  35.94603 [K], p_1: 3.13650 [A], shift/k_B:  -0.03111894 [K], tailcorrection: no
  C_co2 -      C5 [LENNARD_JONES] p_0/k_B:  35.94603 [K], p_1: 3.13650 [A], shift/k_B:  -0.03111894 [K], tailcorrection: no
  C_co2 -      C4 [LENNARD_JONES] p_0/k_B:  35.94603 [K], p_1: 3.13650 [A], shift/k_B:  -0.03111894 [K], tailcorrection: no
  C_co2 -      C3 [LENNARD_JONES] p_0/k_B:  35.94603 [K], p_1: 3.13650 [A], shift/k_B:  -0.03111894 [K], tailcorrection: no
  C_co2 -      C2 [LENNARD_JONES] p_0/k_B:  35.94603 [K], p_1: 3.13650 [A], shift/k_B:  -0.03111894 [K], tailcorrection: no
  C_co2 -      C1 [LENNARD_JONES] p_0/k_B:  35.94603 [K], p_1: 3.13650 [A], shift/k_B:  -0.03111894 [K], tailcorrection: no
  C_co2 -      O1 [LENNARD_JONES] p_0/k_B:  36.05924 [K], p_1: 2.91657 [A], shift/k_B:  -0.02018342 [K], tailcorrection: no
  C_co2 -      H3 [LENNARD_JONES] p_0/k_B:  14.37084 [K], p_1: 2.82321 [A], shift/k_B:  -0.00661746 [K], tailcorrection: no
  C_co2 -      H2 [LENNARD_JONES] p_0/k_B:  14.37084 [K], p_1: 2.82321 [A], shift/k_B:  -0.00661746 [K], tailcorrection: no
  C_co2 -      H1 [LENNARD_JONES] p_0/k_B:  14.37084 [K], p_1: 2.82321 [A], shift/k_B:  -0.00661746 [K], tailcorrection: no
  O_co2 -   O_co2 [LENNARD_JONES] p_0/k_B:  79.00000 [K], p_1: 3.05000 [A], shift/k_B:  -0.05782915 [K], tailcorrection: no
  O_co2 -    O_o2 [LENNARD_JONES] p_0/k_B:  61.68055 [K], p_1: 3.04157 [A], shift/k_B:  -0.04440802 [K], tailcorrection: no
  O_co2 -   O_com [LENNARD_JONES] p_0/k_B:  61.68055 [K], p_1: 3.04157 [A], shift/k_B:  -0.04440802 [K], tailcorrection: no
  O_co2 -    N_n2 [LENNARD_JONES] p_0/k_B:  53.32917 [K], p_1: 3.18000 [A], shift/k_B:  -0.05014476 [K], tailcorrection: no
  O_co2 -   N_com [ZERO_POTENTIAL]
  O_co2 -      Ar [LENNARD_JONES] p_0/k_B:  97.28412 [K], p_1: 3.19500 [A], shift/k_B:  -0.09409407 [K], tailcorrection: no
  O_co2 -      Ow [LENNARD_JONES] p_0/k_B:  84.14872 [K], p_1: 3.07350 [A], shift/k_B:  -0.06450060 [K], tailcorrection: no
  O_co2 -      Hw [LENNARD_JONES] p_0/k_B:  24.58181 [K], p_1: 2.94821 [A], shift/k_B:  -0.01467911 [K], tailcorrection: no
  O_co2 -  C_benz [LENNARD_JONES] p_0/k_B:  49.24733 [K], p_1: 3.32500 [A], shift/k_B:  -0.06050613 [K], tailcorrection: no
  O_co2 -  H_benz [LENNARD_JONES] p_0/k_B:  44.83916 [K], p_1: 2.70500 [A], shift/k_B:  -0.01597433 [K], tailcorrection: no
  O_co2 -   N_dmf [LENNARD_JONES] p_0/k_B:  79.49843 [K], p_1: 3.12500 [A], shift/k_B:  -0.06732353 [K], tailcorrection: no
  O_co2 -  Co_dmf [LENNARD_JONES] p_0/k_B:  62.84903 [K], p_1: 3.37500 [A], shift/k_B:  -0.08444918 [K], tailcorrection: no
  O_co2 -  Cm_dmf [LENNARD_JONES] p_0/k_B:  79.49843 [K], p_1: 3.42500 [A], shift/k_B:  -0.11667095 [K], tailcorrection: no
  O_co2 -   O_dmf [LENNARD_JONES] p_0/k_B:  88.88194 [K], p_1: 3.00500 [A], shift/k_B:  -0.05951245 [K], tailcorrection: no
  O_co2 -   H_dmf [LENNARD_JONES] p_0/k_B:  25.13961 [K], p_1: 2.62500 [A], shift/k_B:  -0.00748001 [K], tailcorrection: no
  O_co2 -      Na [LENNARD_JONES] p_0/k_B:  55.47059 [K], p_1: 3.15628 [A], shift/k_B:  -0.04986760 [K], tailcorrection: no
  O_co2 -      Cl [LENNARD_JONES] p_0/k_B: 106.12445 [K], p_1: 3.28466 [A], shift/k_B:  -0.12118088 [K], tailcorrection: no
  O_co2 -      Kr [LENNARD_JONES] p_0/k_B: 114.65426 [K], p_1: 3.34300 [A], shift/k_B:  -0.14550261 [K], tailcorrection: no
  O_co2 -      Xe [LENNARD_JONES] p_0/k_B: 132.13251 [K], p_1: 3.57500 [A], shift/k_B:  -0.25076097 [K], tailcorrection: no
  O_co2 -     Zn1 [LENNARD_JONES] p_0/k_B:  70.21066 [K], p_1: 2.75577 [A], shift/k_B:  -0.02796550 [K], tailcorrection: no
  O_co2 -      O2 [LENNARD_JONES] p_0/k_B:  61.68055 [K], p_1: 3.04157 [A], shift/k_B:  -0.04440802 [K], tailcorrection: no
  O_co2 -      C6 [LENNARD_JONES] p_0/k_B:  61.48691 [K], p_1: 3.26150 [A], shift/k_B:  -0.06729213 [K], tailcorrection: no
  O_co2 -      C7 [LENNARD_JONES] p_0/k_B:  61.48691 [K], p_1: 3.26150 [A], shift/k_B:  -0.06729213 [K], tailcorrection: no
  O_co2 -      C5 [LENNARD_JONES] p_0/k_B:  61.48691 [K], p_1: 3.26150 [A], shift/k_B:  -0.06729213 [K], tailcorrection: no
  O_co2 -      C4 [LENNARD_JONES] p_0/k_B:  61.48691 [K], p_1: 3.26150 [A], shift/k_B:  -0.06729213 [K], tailcorrection: no
  O_co2 -      C3 [LENNARD_JONES] p_0/k_B:  61.48691 [K], p_1: 3.26150 [A], shift/k_B:  -0.06729213 [K], tailcorrection: no
  O_co2 -      C2 [LENNARD_JONES] p_0/k_B:  61.48691 [K], p_1: 3.26150 [A], shift/k_B:  -0.06729213 [K], tailcorrection: no
  O_co2 -      C1 [LENNARD_JONES] p_0/k_B:  61.48691 [K], p_1: 3.26150 [A], shift/k_B:  -0.06729213 [K], tailcorrection: no
  O_co2 -      O1 [LENNARD_JONES] p_0/k_B:  61.68055 [K], p_1: 3.04157 [A], shift/k_B:  -0.04440802 [K], tailcorrection: no
  O_co2 -      H3 [LENNARD_JONES] p_0/k_B:  24.58181 [K], p_1: 2.94821 [A], shift/k_B:  -0.01467911 [K], tailcorrection: no
  O_co2 -      H2 [LENNARD_JONES] p_0/k_B:  24.58181 [K], p_1: 2.94821 [A], shift/k_B:  -0.01467911 [K], tailcorrection: no
  O_co2 -      H1 [LENNARD_JONES] p_0/k_B:  24.58181 [K], p_1: 2.94821 [A], shift/k_B:  -0.01467911 [K], tailcorrection: no
   O_o2 -    O_o2 [LENNARD_JONES] p_0/k_B:  48.15810 [K], p_1: 3.03315 [A], shift/k_B:  -0.03410012 [K], tailcorrection: no
   O_o2 -   O_com [LENNARD_JONES] p_0/k_B:  48.15810 [K], p_1: 3.03315 [A], shift/k_B:  -0.03410012 [K], tailcorrection: no
   O_o2 -    N_n2 [LENNARD_JONES] p_0/k_B:  41.63762 [K], p_1: 3.17157 [A], shift/k_B:  -0.03853324 [K], tailcorrection: no
   O_o2 -   N_com [ZERO_POTENTIAL]
   O_o2 -      Ar [LENNARD_JONES] p_0/k_B:  75.95617 [K], p_1: 3.18657 [A], shift/k_B:  -0.07231106 [K], tailcorrection: no
   O_o2 -      Ow [LENNARD_JONES] p_0/k_B:  65.70049 [K], p_1: 3.06508 [A], shift/k_B:  -0.04953744 [K], tailcorrection: no
   O_o2 -      Hw [LENNARD_JONES] p_0/k_B:  19.19265 [K], p_1: 2.93979 [A], shift/k_B:  -0.01126587 [K], tailcorrection: no
   O_o2 -  C_benz [LENNARD_JONES] p_0/k_B:  38.45067 [K], p_1: 3.31658 [A], shift/k_B:  -0.04652769 [K], tailcorrection: no
   O_o2 -  H_benz [LENNARD_JONES] p_0/k_B:  35.00891 [K], p_1: 2.69658 [A], shift/k_B:  -0.01224097 [K], tailcorrection: no
   O_o2 -   N_dmf [LENNARD_JONES] p_0/k_B:  62.06970 [K], p_1: 3.11658 [A], shift/k_B:  -0.05171956 [K], tailcorrection: no
   O_o2 -  Co_dmf [LENNARD_JONES] p_0/k_B:  49.07041 [K], p_1: 3.36658 [A], shift/k_B:  -0.06495399 [K], tailcorrection: no
   O_o2 -  Cm_dmf [LENNARD_JONES] p_0/k_B:  62.06970 [K], p_1: 3.41657 [A], shift/k_B:  -0.08975704 [K], tailcorrection: no
   O_o2 -   O_dmf [LENNARD_JONES] p_0/k_B:  69.39604 [K], p_1: 2.99657 [A], shift/k_B:  -0.04568927 [K], tailcorrection: no
   O_o2 -   H_dmf [LENNARD_JONES] p_0/k_B:  19.62816 [K], p_1: 2.61658 [A], shift/k_B:  -0.00572858 [K], tailcorrection: no
   O_o2 -      Na [LENNARD_JONES] p_0/k_B:  43.30958 [K], p_1: 3.14785 [A], shift/k_B:  -0.03831566 [K], tailcorrection: no
   O_o2 -      Cl [LENNARD_JONES] p_0/k_B:  82.85840 [K], p_1: 3.27623 [A], shift/k_B:  -0.09316759 [K], tailcorrection: no
   O_o2 -      Kr [LENNARD_JONES] p_0/k_B:  89.51820 [K], p_1: 3.33458 [A], shift/k_B:  -0.11189706 [K], tailcorrection: no
   O_o2 -      Xe [LENNARD_JONES] p_0/k_B: 103.16463 [K], p_1: 3.56657 [A], shift/k_B:  -0.19303491 [K], tailcorrection: no
   O_o2 -     Zn1 [LENNARD_JONES] p_0/k_B:  54.81813 [K], p_1: 2.74735 [A], shift/k_B:  -0.02143709 [K], tailcorrection: no
   O_o2 -      O2 [LENNARD_JONES] p_0/k_B:  48.15810 [K], p_1: 3.03315 [A], shift/k_B:  -0.03410012 [K], tailcorrection: no
   O_o2 -      C6 [LENNARD_JONES] p_0/k_B:  48.00691 [K], p_1: 3.25307 [A], shift/k_B:  -0.05173058 [K], tailcorrection: no
   O_o2 -      C7 [LENNARD_JONES] p_0/k_B:  48.00691 [K], p_1: 3.25307 [A], shift/k_B:  -0.05173058 [K], tailcorrection: no
   O_o2 -      C5 [LENNARD_JONES] p_0/k_B:  48.00691 [K], p_1: 3.25307 [A], shift/k_B:  -0.05173058 [K], tailcorrection: no
   O_o2 -      C4 [LENNARD_JONES] p_0/k_B:  48.00691 [K], p_1: 3.25307 [A], shift/k_B:  -0.05173058 [K], tailcorrection: no
   O_o2 -      C3 [LENNARD_JONES] p_0/k_B:  48.00691 [K], p_1: 3.25307 [A], shift/k_B:  -0.05173058 [K], tailcorrection: no
   O_o2 -      C2 [LENNARD_JONES] p_0/k_B:  48.00691 [K], p_1: 3.25307 [A], shift/k_B:  -0.05173058 [K], tailcorrection: no
   O_o2 -      C1 [LENNARD_JONES] p_0/k_B:  48.00691 [K], p_1: 3.25307 [A], shift/k_B:  -0.05173058 [K], tailcorrection: no
   O_o2 -      O1 [LENNARD_JONES] p_0/k_B:  48.15810 [K], p_1: 3.03315 [A], shift/k_B:  -0.03410012 [K], tailcorrection: no
   O_o2 -      H3 [LENNARD_JONES] p_0/k_B:  19.19265 [K], p_1: 2.93979 [A], shift/k_B:  -0.01126587 [K], tailcorrection: no
   O_o2 -      H2 [LENNARD_JONES] p_0/k_B:  19.19265 [K], p_1: 2.93979 [A], shift/k_B:  -0.01126587 [K], tailcorrection: no
   O_o2 -      H1 [LENNARD_JONES] p_0/k_B:  19.19265 [K], p_1: 2.93979 [A], shift/k_B:  -0.01126587 [K], tailcorrection: no
  O_com -   O_com [LENNARD_JONES] p_0/k_B:  48.15810 [K], p_1: 3.03315 [A], shift/k_B:  -0.03410012 [K], tailcorrection: no
  O_com -    N_n2 [LENNARD_JONES] p_0/k_B:  41.63762 [K], p_1: 3.17157 [A], shift/k_B:  -0.03853324 [K], tailcorrection: no
  O_com -   N_com [ZERO_POTENTIAL]
  O_com -      Ar [LENNARD_JONES] p_0/k_B:  75.95617 [K], p_1: 3.18657 [A], shift/k_B:  -0.07231106 [K], tailcorrection: no
  O_com -      Ow [LENNARD_JONES] p_0/k_B:  65.70049 [K], p_1: 3.06508 [A], shift/k_B:  -0.04953744 [K], tailcorrection: no
  O_com -      Hw [LENNARD_JONES] p_0/k_B:  19.19265 [K], p_1: 2.93979 [A], shift/k_B:  -0.01126587 [K], tailcorrection: no
  O_com -  C_benz [LENNARD_JONES] p_0/k_B:  38.45067 [K], p_1: 3.31658 [A], shift/k_B:  -0.04652769 [K], tailcorrection: no
  O_com -  H_benz [LENNARD_JONES] p_0/k_B:  35.00891 [K], p_1: 2.69658 [A], shift/k_B:  -0.01224097 [K], tailcorrection: no
  O_com -   N_dmf [LENNARD_JONES] p_0/k_B:  62.06970 [K], p_1: 3.11658 [A], shift/k_B:  -0.05171956 [K], tailcorrection: no
  O_com -  Co_dmf [LENNARD_JONES] p_0/k_B:  49.07041 [K], p_1: 3.36658 [A], shift/k_B:  -0.06495399 [K], tailcorrection: no
  O_com -  Cm_dmf [LENNARD_JONES] p_0/k_B:  62.06970 [K], p_1: 3.41657 [A], shift/k_B:  -0.08975704 [K], tailcorrection: no
  O_com -   O_dmf [LENNARD_JONES] p_0/k_B:  69.39604 [K], p_1: 2.99657 [A], shift/k_B:  -0.04568927 [K], tailcorrection: no
  O_com -   H_dmf [LENNARD_JONES] p_0/k_B:  19.62816 [K], p_1: 2.61658 [A], shift/k_B:  -0.00572858 [K], tailcorrection: no
  O_com -      Na [LENNARD_JONES] p_0/k_B:  43.30958 [K], p_1: 3.14785 [A], shift/k_B:  -0.03831566 [K], tailcorrection: no
  O_com -      Cl [LENNARD_JONES] p_0/k_B:  82.85840 [K], p_1: 3.27623 [A], shift/k_B:  -0.09316759 [K], tailcorrection: no
  O_com -      Kr [LENNARD_JONES] p_0/k_B:  89.51820 [K], p_1: 3.33458 [A], shift/k_B:  -0.11189706 [K], tailcorrection: no
  O_com -      Xe [LENNARD_JONES] p_0/k_B: 103.16463 [K], p_1: 3.56657 [A], shift/k_B:  -0.19303491 [K], tailcorrection: no
  O_com -     Zn1 [LENNARD_JONES] p_0/k_B:  54.81813 [K], p_1: 2.74735 [A], shift/k_B:  -0.02143709 [K], tailcorrection: no
  O_com -      O2 [LENNARD_JONES] p_0/k_B:  48.15810 [K], p_1: 3.03315 [A], shift/k_B:  -0.03410012 [K], tailcorrection: no
  O_com -      C6 [LENNARD_JONES] p_0/k_B:  48.00691 [K], p_1: 3.25307 [A], shift/k_B:  -0.05173058 [K], tailcorrection: no
  O_com -      C7 [LENNARD_JONES] p_0/k_B:  48.00691 [K], p_1: 3.25307 [A], shift/k_B:  -0.05173058 [K], tailcorrection: no
  O_com -      C5 [LENNARD_JONES] p_0/k_B:  48.00691 [K], p_1: 3.25307 [A], shift/k_B:  -0.05173058 [K], tailcorrection: no
  O_com -      C4 [LENNARD_JONES] p_0/k_B:  48.00691 [K], p_1: 3.25307 [A], shift/k_B:  -0.05173058 [K], tailcorrection: no
  O_com -      C3 [LENNARD_JONES] p_0/k_B:  48.00691 [K], p_1: 3.25307 [A], shift/k_B:  -0.05173058 [K], tailcorrection: no
  O_com -      C2 [LENNARD_JONES] p_0/k_B:  48.00691 [K], p_1: 3.25307 [A], shift/k_B:  -0.05173058 [K], tailcorrection: no
  O_com -      C1 [LENNARD_JONES] p_0/k_B:  48.00691 [K], p_1: 3.25307 [A], shift/k_B:  -0.05173058 [K], tailcorrection: no
  O_com -      O1 [LENNARD_JONES] p_0/k_B:  48.15810 [K], p_1: 3.03315 [A], shift/k_B:  -0.03410012 [K], tailcorrection: no
  O_com -      H3 [LENNARD_JONES] p_0/k_B:  19.19265 [K], p_1: 2.93979 [A], shift/k_B:  -0.01126587 [K], tailcorrection: no
  O_com -      H2 [LENNARD_JONES] p_0/k_B:  19.19265 [K], p_1: 2.93979 [A], shift/k_B:  -0.01126587 [K], tailcorrection: no
  O_com -      H1 [LENNARD_JONES] p_0/k_B:  19.19265 [K], p_1: 2.93979 [A], shift/k_B:  -0.01126587 [K], tailcorrection: no
   N_n2 -    N_n2 [LENNARD_JONES] p_0/k_B:  36.00000 [K], p_1: 3.31000 [A], shift/k_B:  -0.04304679 [K], tailcorrection: no
   N_n2 -   N_com [ZERO_POTENTIAL]
   N_n2 -      Ar [LENNARD_JONES] p_0/k_B:  65.67191 [K], p_1: 3.32500 [A], shift/k_B:  -0.08068564 [K], tailcorrection: no
   N_n2 -      Ow [LENNARD_JONES] p_0/k_B:  56.80482 [K], p_1: 3.20350 [A], shift/k_B:  -0.05582478 [K], tailcorrection: no
   N_n2 -      Hw [LENNARD_JONES] p_0/k_B:  16.59402 [K], p_1: 3.07821 [A], shift/k_B:  -0.01283681 [K], tailcorrection: no
   N_n2 -  C_benz [LENNARD_JONES] p_0/k_B:  33.24455 [K], p_1: 3.45500 [A], shift/k_B:  -0.05140921 [K], tailcorrection: no
   N_n2 -  H_benz [LENNARD_JONES] p_0/k_B:  30.26880 [K], p_1: 2.83500 [A], shift/k_B:  -0.01429099 [K], tailcorrection: no
   N_n2 -   N_dmf [LENNARD_JONES] p_0/k_B:  53.66563 [K], p_1: 3.25500 [A], shift/k_B:  -0.05803432 [K], tailcorrection: no
   N_n2 -  Co_dmf [LENNARD_JONES] p_0/k_B:  42.42641 [K], p_1: 3.50500 [A], shift/k_B:  -0.07151241 [K], tailcorrection: no
   N_n2 -  Cm_dmf [LENNARD_JONES] p_0/k_B:  53.66563 [K], p_1: 3.55500 [A], shift/k_B:  -0.09847697 [K], tailcorrection: no
   N_n2 -   O_dmf [LENNARD_JONES] p_0/k_B:  60.00000 [K], p_1: 3.13500 [A], shift/k_B:  -0.05179442 [K], tailcorrection: no
   N_n2 -   H_dmf [LENNARD_JONES] p_0/k_B:  16.97056 [K], p_1: 2.75500 [A], shift/k_B:  -0.00674812 [K], tailcorrection: no
   N_n2 -      Na [LENNARD_JONES] p_0/k_B:  37.44558 [K], p_1: 3.28628 [A], shift/k_B:  -0.04288483 [K], tailcorrection: no
   N_n2 -      Cl [LENNARD_JONES] p_0/k_B:  71.63960 [K], p_1: 3.41466 [A], shift/k_B:  -0.10324798 [K], tailcorrection: no
   N_n2 -      Kr [LENNARD_JONES] p_0/k_B:  77.39767 [K], p_1: 3.47300 [A], shift/k_B:  -0.12347626 [K], tailcorrection: no
   N_n2 -      Xe [LENNARD_JONES] p_0/k_B:  89.19641 [K], p_1: 3.70500 [A], shift/k_B:  -0.20971106 [K], tailcorrection: no
   N_n2 -     Zn1 [LENNARD_JONES] p_0/k_B:  47.39590 [K], p_1: 2.88577 [A], shift/k_B:  -0.02489194 [K], tailcorrection: no
   N_n2 -      O2 [LENNARD_JONES] p_0/k_B:  41.63762 [K], p_1: 3.17157 [A], shift/k_B:  -0.03853324 [K], tailcorrection: no
   N_n2 -      C6 [LENNARD_JONES] p_0/k_B:  41.50691 [K], p_1: 3.39149 [A], shift/k_B:  -0.05742716 [K], tailcorrection: no
   N_n2 -      C7 [LENNARD_JONES] p_0/k_B:  41.50691 [K], p_1: 3.39149 [A], shift/k_B:  -0.05742716 [K], tailcorrection: no
   N_n2 -      C5 [LENNARD_JONES] p_0/k_B:  41.50691 [K], p_1: 3.39149 [A], shift/k_B:  -0.05742716 [K], tailcorrection: no
   N_n2 -      C4 [LENNARD_JONES] p_0/k_B:  41.50691 [K], p_1: 3.39149 [A], shift/k_B:  -0.05742716 [K], tailcorrection: no
   N_n2 -      C3 [LENNARD_JONES] p_0/k_B:  41.50691 [K], p_1: 3.39149 [A], shift/k_B:  -0.05742716 [K], tailcorrection: no
   N_n2 -      C2 [LENNARD_JONES] p_0/k_B:  41.50691 [K], p_1: 3.39149 [A], shift/k_B:  -0.05742716 [K], tailcorrection: no
   N_n2 -      C1 [LENNARD_JONES] p_0/k_B:  41.50691 [K], p_1: 3.39149 [A], shift/k_B:  -0.05742716 [K], tailcorrection: no
   N_n2 -      O1 [LENNARD_JONES] p_0/k_B:  41.63762 [K], p_1: 3.17157 [A], shift/k_B:  -0.03853324 [K], tailcorrection: no
   N_n2 -      H3 [LENNARD_JONES] p_0/k_B:  16.59402 [K], p_1: 3.07821 [A], shift/k_B:  -0.01283681 [K], tailcorrection: no
   N_n2 -      H2 [LENNARD_JONES] p_0/k_B:  16.59402 [K], p_1: 3.07821 [A], shift/k_B:  -0.01283681 [K], tailcorrection: no
   N_n2 -      H1 [LENNARD_JONES] p_0/k_B:  16.59402 [K], p_1: 3.07821 [A], shift/k_B:  -0.01283681 [K], tailcorrection: no
  N_com -   N_com [ZERO_POTENTIAL]
  N_com -      Ar [ZERO_POTENTIAL]
  N_com -      Ow [ZERO_POTENTIAL]
  N_com -      Hw [ZERO_POTENTIAL]
  N_com -      Lw [ZERO_POTENTIAL]
  N_com -  C_benz [ZERO_POTENTIAL]
  N_com -  H_benz [ZERO_POTENTIAL]
  N_com -   N_dmf [ZERO_POTENTIAL]
  N_com -  Co_dmf [ZERO_POTENTIAL]
  N_com -  Cm_dmf [ZERO_POTENTIAL]
  N_com -   O_dmf [ZERO_POTENTIAL]
  N_com -   H_dmf [ZERO_POTENTIAL]
  N_com -      Na [ZERO_POTENTIAL]
  N_com -      Cl [ZERO_POTENTIAL]
  N_com -      Kr [ZERO_POTENTIAL]
  N_com -      Xe [ZERO_POTENTIAL]
  N_com -     Zn1 [ZERO_POTENTIAL]
  N_com -      O2 [ZERO_POTENTIAL]
  N_com -      C6 [ZERO_POTENTIAL]
  N_com -      C7 [ZERO_POTENTIAL]
  N_com -      C5 [ZERO_POTENTIAL]
  N_com -      C4 [ZERO_POTENTIAL]
  N_com -      C3 [ZERO_POTENTIAL]
  N_com -      C2 [ZERO_POTENTIAL]
[...]
	Average              0.00000 [K] +/-            0.00000 [K]

Average Adsorbate Intra charge-charge Coulomb energy:
=======================================
	Block[ 0]            0.00000 [K]
	Block[ 1]            0.00000 [K]
	Block[ 2]            0.00000 [K]
	Block[ 3]            0.00000 [K]
	Block[ 4]            0.00000 [K]
	------------------------------------------------------------------------------
	Average              0.00000 [K] +/-            0.00000 [K]

Average Adsorbate Intra charge-bonddipole Coulomb energy:
=======================================
	Block[ 0]            0.00000 [K]
	Block[ 1]            0.00000 [K]
	Block[ 2]            0.00000 [K]
	Block[ 3]            0.00000 [K]
	Block[ 4]            0.00000 [K]
	------------------------------------------------------------------------------
	Average              0.00000 [K] +/-            0.00000 [K]

Average Adsorbate Intra bonddipole-bonddipole Coulomb energy:
=======================================
	Block[ 0]            0.00000 [K]
	Block[ 1]            0.00000 [K]
	Block[ 2]            0.00000 [K]
	Block[ 3]            0.00000 [K]
	Block[ 4]            0.00000 [K]
	------------------------------------------------------------------------------
	Average              0.00000 [K] +/-            0.00000 [K]

Average Cation Bond stretch energy:
=================================
	Block[ 0]            0.00000 [K]
	Block[ 1]            0.00000 [K]
	Block[ 2]            0.00000 [K]
	Block[ 3]            0.00000 [K]
	Block[ 4]            0.00000 [K]
	------------------------------------------------------------------------------
	Average              0.00000 [K] +/-            0.00000 [K]

Average Cation UreyBradley stretch energy:
==========================================
	Block[ 0]            0.00000 [K]
	Block[ 1]            0.00000 [K]
	Block[ 2]            0.00000 [K]
	Block[ 3]            0.00000 [K]
	Block[ 4]            0.00000 [K]
	------------------------------------------------------------------------------
	Average              0.00000 [K] +/-            0.00000 [K]

Average Cation Bend angle energy:
=================================
	Block[ 0]            0.00000 [K]
	Block[ 1]            0.00000 [K]
	Block[ 2]            0.00000 [K]
	Block[ 3]            0.00000 [K]
	Block[ 4]            0.00000 [K]
	------------------------------------------------------------------------------
	Average              0.00000 [K] +/-            0.00000 [K]

Average Cation Bend angle inversion energy:
===========================================
	Block[ 0]            0.00000 [K]
	Block[ 1]            0.00000 [K]
	Block[ 2]            0.00000 [K]
	Block[ 3]            0.00000 [K]
	Block[ 4]            0.00000 [K]
	------------------------------------------------------------------------------
	Average              0.00000 [K] +/-            0.00000 [K]

Average Cation Torsion energy:
==============================
	Block[ 0]            0.00000 [K]
	Block[ 1]            0.00000 [K]
	Block[ 2]            0.00000 [K]
	Block[ 3]            0.00000 [K]
	Block[ 4]            0.00000 [K]
	------------------------------------------------------------------------------
	Average              0.00000 [K] +/-            0.00000 [K]

Average Cation Improper Torsion energy:
=======================================
	Block[ 0]            0.00000 [K]
	Block[ 1]            0.00000 [K]
	Block[ 2]            0.00000 [K]
	Block[ 3]            0.00000 [K]
	Block[ 4]            0.00000 [K]
	------------------------------------------------------------------------------
	Average              0.00000 [K] +/-            0.00000 [K]

Average Cation Bond-Bond cross term energy:
=================================================
	Block[ 0]            0.00000 [K]
	Block[ 1]            0.00000 [K]
	Block[ 2]            0.00000 [K]
	Block[ 3]            0.00000 [K]
	Block[ 4]            0.00000 [K]
	------------------------------------------------------------------------------
	Average              0.00000 [K] +/-            0.00000 [K]

Average Cation Bend-Bend cross term energy:
===========================================
	Block[ 0]            0.00000 [K]
	Block[ 1]            0.00000 [K]
	Block[ 2]            0.00000 [K]
	Block[ 3]            0.00000 [K]
	Block[ 4]            0.00000 [K]
	------------------------------------------------------------------------------
	Average              0.00000 [K] +/-            0.00000 [K]

Average Cation Bond-Bend cross term energy:
==============================================
	Block[ 0]            0.00000 [K]
	Block[ 1]            0.00000 [K]
	Block[ 2]            0.00000 [K]
	Block[ 3]            0.00000 [K]
	Block[ 4]            0.00000 [K]
	------------------------------------------------------------------------------
	Average              0.00000 [K] +/-            0.00000 [K]

Average Cation Bond-Torsion cross term energy:
==============================================
	Block[ 0]            0.00000 [K]
	Block[ 1]            0.00000 [K]
	Block[ 2]            0.00000 [K]
	Block[ 3]            0.00000 [K]
	Block[ 4]            0.00000 [K]
	------------------------------------------------------------------------------
	Average              0.00000 [K] +/-            0.00000 [K]

Average Cation Bend-Torsion cross term energy:
==============================================
	Block[ 0]            0.00000 [K]
	Block[ 1]            0.00000 [K]
	Block[ 2]            0.00000 [K]
	Block[ 3]            0.00000 [K]
	Block[ 4]            0.00000 [K]
	------------------------------------------------------------------------------
	Average              0.00000 [K] +/-            0.00000 [K]

Average Cation Intra Van der Waals energy:
==========================================
	Block[ 0]            0.00000 [K]
	Block[ 1]            0.00000 [K]
	Block[ 2]            0.00000 [K]
	Block[ 3]            0.00000 [K]
	Block[ 4]            0.00000 [K]
	------------------------------------------------------------------------------
	Average              0.00000 [K] +/-            0.00000 [K]

Average Cation Intra charge-charge Coulomb energy:
====================================
	Block[ 0]            0.00000 [K]
	Block[ 1]            0.00000 [K]
	Block[ 2]            0.00000 [K]
	Block[ 3]            0.00000 [K]
	Block[ 4]            0.00000 [K]
	------------------------------------------------------------------------------
	Average              0.00000 [K] +/-            0.00000 [K]

Average Cation Intra charge-bonddipole Coulomb energy:
====================================
	Block[ 0]            0.00000 [K]
	Block[ 1]            0.00000 [K]
	Block[ 2]            0.00000 [K]
	Block[ 3]            0.00000 [K]
	Block[ 4]            0.00000 [K]
	------------------------------------------------------------------------------
	Average              0.00000 [K] +/-            0.00000 [K]

Average Cation Intra bonddipole-bonddipole Coulomb energy:
====================================
	Block[ 0]            0.00000 [K]
	Block[ 1]            0.00000 [K]
	Block[ 2]            0.00000 [K]
	Block[ 3]            0.00000 [K]
	Block[ 4]            0.00000 [K]
	------------------------------------------------------------------------------
	Average              0.00000 [K] +/-            0.00000 [K]

Average Host-Host energy:
=========================
	Block[ 0] 0.00000            Van der Waals: 0.00000            Coulomb: 0.00000            [K]
	Block[ 1] 0.00000            Van der Waals: 0.00000            Coulomb: 0.00000            [K]
	Block[ 2] 0.00000            Van der Waals: 0.00000            Coulomb: 0.00000            [K]
	Block[ 3] 0.00000            Van der Waals: 0.00000            Coulomb: 0.00000            [K]
	Block[ 4] 0.00000            Van der Waals: 0.00000            Coulomb: 0.00000            [K]
	------------------------------------------------------------------------------
	Average   0.00000            Van der Waals: 0.000000           Coulomb: 0.00000            [K]
	      +/- 0.00000                       +/- 0.000000                +/- 0.00000            [K]

Average Adsorbate-Adsorbate energy:
===================================
	Block[ 0] 0.00000            Van der Waals: 0.00000            Coulomb: 0.00000            [K]
	Block[ 1] 0.00000            Van der Waals: 0.00000            Coulomb: 0.00000            [K]
	Block[ 2] 0.00000            Van der Waals: 0.00000            Coulomb: 0.00000            [K]
	Block[ 3] 0.00000            Van der Waals: 0.00000            Coulomb: 0.00000            [K]
	Block[ 4] 0.00000            Van der Waals: 0.00000            Coulomb: 0.00000            [K]
	------------------------------------------------------------------------------
	Average   0.00000            Van der Waals: 0.000000           Coulomb: 0.00000            [K]
	      +/- 0.00000                       +/- 0.000000                +/- 0.00000            [K]

Average Cation-Cation energy:
=============================
	Block[ 0] 0.00000            Van der Waals: 0.00000            Coulomb: 0.00000            [K]
	Block[ 1] 0.00000            Van der Waals: 0.00000            Coulomb: 0.00000            [K]
	Block[ 2] 0.00000            Van der Waals: 0.00000            Coulomb: 0.00000            [K]
	Block[ 3] 0.00000            Van der Waals: 0.00000            Coulomb: 0.00000            [K]
	Block[ 4] 0.00000            Van der Waals: 0.00000            Coulomb: 0.00000            [K]
	------------------------------------------------------------------------------
	Average   0.00000            Van der Waals: 0.000000           Coulomb: 0.00000            [K]
	      +/- 0.00000                       +/- 0.000000                +/- 0.00000            [K]

Average Host-Adsorbate energy:
==============================
	Block[ 0] 0.00000            Van der Waals: 0.00000            Coulomb: 0.00000            [K]
	Block[ 1] 0.00000            Van der Waals: 0.00000            Coulomb: 0.00000            [K]
	Block[ 2] 0.00000            Van der Waals: 0.00000            Coulomb: 0.00000            [K]
	Block[ 3] 0.00000            Van der Waals: 0.00000            Coulomb: 0.00000            [K]
	Block[ 4] 0.00000            Van der Waals: 0.00000            Coulomb: 0.00000            [K]
	------------------------------------------------------------------------------
	Average   0.00000            Van der Waals: 0.000000           Coulomb: 0.00000            [K]
	      +/- 0.00000                       +/- 0.000000                +/- 0.00000            [K]

Average Host-Cation energy:
===========================
	Block[ 0] 0.00000            Van der Waals: 0.00000            Coulomb: 0.00000            [K]
	Block[ 1] 0.00000            Van der Waals: 0.00000            Coulomb: 0.00000            [K]
	Block[ 2] 0.00000            Van der Waals: 0.00000            Coulomb: 0.00000            [K]
	Block[ 3] 0.00000            Van der Waals: 0.00000            Coulomb: 0.00000            [K]
	Block[ 4] 0.00000            Van der Waals: 0.00000            Coulomb: 0.00000            [K]
	------------------------------------------------------------------------------
	Average   0.00000            Van der Waals: 0.000000           Coulomb: 0.00000            [K]
	      +/- 0.00000                       +/- 0.000000                +/- 0.00000            [K]

Average Adsorbate-Cation energy:
================================
	Block[ 0] 0.00000            Van der Waals: 0.00000            Coulomb: 0.00000            [K]
	Block[ 1] 0.00000            Van der Waals: 0.00000            Coulomb: 0.00000            [K]
	Block[ 2] 0.00000            Van der Waals: 0.00000            Coulomb: 0.00000            [K]
	Block[ 3] 0.00000            Van der Waals: 0.00000            Coulomb: 0.00000            [K]
	Block[ 4] 0.00000            Van der Waals: 0.00000            Coulomb: 0.00000            [K]
	------------------------------------------------------------------------------
	Average   0.00000            Van der Waals: 0.000000           Coulomb: 0.00000            [K]
	      +/- 0.00000                       +/- 0.000000                +/- 0.00000            [K]

Host polarization energy:
=======================
	Block[ 0]            0.00000 [K]
	Block[ 1]            0.00000 [K]
	Block[ 2]            0.00000 [K]
	Block[ 3]            0.00000 [K]
	Block[ 4]            0.00000 [K]
	------------------------------------------------------------------------------
	Average              0.00000 [K] +/-            0.00000 [K]

Adsorbate polarization energy:
=======================
	Block[ 0]            0.00000 [K]
	Block[ 1]            0.00000 [K]
	Block[ 2]            0.00000 [K]
	Block[ 3]            0.00000 [K]
	Block[ 4]            0.00000 [K]
	------------------------------------------------------------------------------
	Average              0.00000 [K] +/-            0.00000 [K]

Cation polarization energy:
=======================
	Block[ 0]            0.00000 [K]
	Block[ 1]            0.00000 [K]
	Block[ 2]            0.00000 [K]
	Block[ 3]            0.00000 [K]
	Block[ 4]            0.00000 [K]
	------------------------------------------------------------------------------
	Average              0.00000 [K] +/-            0.00000 [K]

Host back-polarization energy:
=======================
	Block[ 0]            0.00000 [K]
	Block[ 1]            0.00000 [K]
	Block[ 2]            0.00000 [K]
	Block[ 3]            0.00000 [K]
	Block[ 4]            0.00000 [K]
	------------------------------------------------------------------------------
	Average              0.00000 [K] +/-            0.00000 [K]

Adsorbate back-polarization energy:
=======================
	Block[ 0]            0.00000 [K]
	Block[ 1]            0.00000 [K]
	Block[ 2]            0.00000 [K]
	Block[ 3]            0.00000 [K]
	Block[ 4]            0.00000 [K]
	------------------------------------------------------------------------------
	Average              0.00000 [K] +/-            0.00000 [K]

Cation back-polarization energy:
=======================
	Block[ 0]            0.00000 [K]
	Block[ 1]            0.00000 [K]
	Block[ 2]            0.00000 [K]
	Block[ 3]            0.00000 [K]
	Block[ 4]            0.00000 [K]
	------------------------------------------------------------------------------
	Average              0.00000 [K] +/-            0.00000 [K]

Tail-correction energy:
=======================
	Block[ 0]            0.00000 [K]
	Block[ 1]            0.00000 [K]
	Block[ 2]            0.00000 [K]
	Block[ 3]            0.00000 [K]
	Block[ 4]            0.00000 [K]
	------------------------------------------------------------------------------
	Average              0.00000 [K] +/-            0.00000 [K]

Distance-constraints energy:
=======================
	Block[ 0]            0.00000 [K]
	Block[ 1]            0.00000 [K]
	Block[ 2]            0.00000 [K]
	Block[ 3]            0.00000 [K]
	Block[ 4]            0.00000 [K]
	------------------------------------------------------------------------------
	Average              0.00000 [K] +/-            0.00000 [K]

Angle-constraints energy:
=======================
	Block[ 0]            0.00000 [K]
	Block[ 1]            0.00000 [K]
	Block[ 2]            0.00000 [K]
	Block[ 3]            0.00000 [K]
	Block[ 4]            0.00000 [K]
	------------------------------------------------------------------------------
	Average              0.00000 [K] +/-            0.00000 [K]

Dihedral-constraints energy:
=======================
	Block[ 0]            0.00000 [K]
	Block[ 1]            0.00000 [K]
	Block[ 2]            0.00000 [K]
	Block[ 3]            0.00000 [K]
	Block[ 4]            0.00000 [K]
	------------------------------------------------------------------------------
	Average              0.00000 [K] +/-            0.00000 [K]

Inversion-bend constraints energy:
=======================
	Block[ 0]            0.00000 [K]
	Block[ 1]            0.00000 [K]
	Block[ 2]            0.00000 [K]
	Block[ 3]            0.00000 [K]
	Block[ 4]            0.00000 [K]
	------------------------------------------------------------------------------
	Average              0.00000 [K] +/-            0.00000 [K]

Out-of-plane-distance constraints energy:
=======================
	Block[ 0]            0.00000 [K]
	Block[ 1]            0.00000 [K]
	Block[ 2]            0.00000 [K]
	Block[ 3]            0.00000 [K]
	Block[ 4]            0.00000 [K]
	------------------------------------------------------------------------------
	Average              0.00000 [K] +/-            0.00000 [K]

Exclusion-constraints energy:
=======================
	Block[ 0]            0.00000 [K]
	Block[ 1]            0.00000 [K]
	Block[ 2]            0.00000 [K]
	Block[ 3]            0.00000 [K]
	Block[ 4]            0.00000 [K]
	------------------------------------------------------------------------------
	Average              0.00000 [K] +/-            0.00000 [K]

Total energy:
=============
	Block[ 0]            0.00000 [K]
	Block[ 1]            0.00000 [K]
	Block[ 2]            0.00000 [K]
	Block[ 3]            0.00000 [K]
	Block[ 4]            0.00000 [K]
	------------------------------------------------------------------------------
	Average              0.00000 [K] +/-            0.00000 [K]

Number of molecules:
====================

Component 0 [N2]
-------------------------------------------------------------
	Block[ 0] 0.00000            [-]
	Block[ 1] 0.00000            [-]
	Block[ 2] 0.00000            [-]
	Block[ 3] 0.00000            [-]
	Block[ 4] 0.00000            [-]
	------------------------------------------------------------------------------
	Average                                      0.0000000000 +/-       0.0000000000 [-]
	Average loading absolute [molecules/unit cell]        0.0000000000 +/-       0.0000000000 [-]
	Average loading absolute [mol/kg framework]          0.0000000000 +/-       0.0000000000 [-]
	Average loading absolute [milligram/gram framework]          0.0000000000 +/-       0.0000000000 [-]
	Average loading absolute [cm^3 (STP)/gr framework]          0.0000000000 +/-       0.0000000000 [-]
	Average loading absolute [cm^3 (STP)/cm^3 framework]          0.0000000000 +/-       0.0000000000 [-]

	Block[ 0] 0.00000            [-]
	Block[ 1] 0.00000            [-]
	Block[ 2] 0.00000            [-]
	Block[ 3] 0.00000            [-]
	Block[ 4] 0.00000            [-]
	------------------------------------------------------------------------------
	Average                                      0.0000000000 +/-       0.0000000000 [-]
	Average loading excess [molecules/unit cell]        0.0000000000 +/-       0.0000000000 [-]
	Average loading excess [mol/kg framework]          0.0000000000 +/-       0.0000000000 [-]
	Average loading excess [milligram/gram framework]          0.0000000000 +/-       0.0000000000 [-]
	Average loading excess [cm^3 (STP)/gr framework]          0.0000000000 +/-       0.0000000000 [-]
	Average loading excess [cm^3 (STP)/cm^3 framework]          0.0000000000 +/-       0.0000000000 [-]


Average Widom Rosenbluth factor:
================================
	Block[ 0] 0 [-]
	Block[ 1] 0 [-]
	Block[ 2] 0 [-]
	Block[ 3] 0 [-]
	Block[ 4] 0 [-]
	------------------------------------------------------------------------------
	[N2] Average Widom:   0 +/- 0.000000 [-]

Average Henry coefficient:
==========================
	Block[ 0] 0 [mol/kg/Pa]
	Block[ 1] 0 [mol/kg/Pa]
	Block[ 2] 0 [mol/kg/Pa]
	Block[ 3] 0 [mol/kg/Pa]
	Block[ 4] 0 [mol/kg/Pa]
	------------------------------------------------------------------------------
	[N2] Average Henry coefficient:  0 +/- 0 [mol/kg/Pa]

Average adsorption energy <U_gh>_1-<U_h>_0 obtained from Widom-insertion:
(Note: the total heat of adsorption is dH=<U_gh>_1-<U_h>_0 - <U_g> - RT)
=========================================================================

Simulation finished,  0 warnings


Sun Nov 30 13:59:54 2014
Simulation finished on Sunday, November 30.
The end time was 01:59 PM.

