Compiler and run-time data
===========================================================================
RASPA 1.8-0
Compiled as a 64-bits application
Compiler: gcc 4.2.1 (Based on Apple Inc. build 5658) (LLVM build 2336.11.00)
Compile Date = Apr 18 2013, Compile Time = 10:46:58

Thu Apr 18 12:19:17 2013
Simulation started on Thursday, April 18.
The start time was 12:19 PM.

Cpu data:    x86_64
Cpu Model:   MacPro5,1
Host name:   server.darkwing.nl
OS release:  12.3.0
OS type:     Darwin
OS version:  12D78


Simulation
===========================================================================
Dimensions: 3
Random number seed: 1366280356
RASPA directory set to: /Users/dubbelda/RASPA/simulations/
String appended to output-files: 
Number of cycles: 1
Number of initializing cycles: 0
Number of equilibration cycles: 0
Print every: 1
Triclinic boundary condition applied
Timestep: 0.000500
Initialization Ensemble: NPT (constant number of particles N, constant average pressure P, constant average temperature T)
Production run ensemble: NPT (constant number of particles N, constant average pressure P, constant average temperature T)
	Degrees of freedom:                        432
	Translational Degrees of freedom:          432
	Rotational Degrees of freedom:             0
	Degrees of freedom Framework:              432


Mutual consistent basic set of units:
======================================
Unit of temperature: Kelvin
Unit of length:      1e-10 [m]
Unit of time:        1e-12 [s]
Unit of mass:        1.66054e-27 [kg]
Unit of charge:      1.60218e-19 [C/particle]

Derived units and their conversion factors:
===========================================
Unit of energy:              1.66054e-23 [J]
Unit of force:               1.66054e-13 [N]
Unit of pressure:            1.66054e+07 [Pa]
Unit of velocity:            100 [m/s]
Unit of acceleration:        1e-08 [m^2/s]
Unit of diffusion:           1e-08 [m^2/s]
Unit of dipole moment:       1.60218e-29 [C.m]
Unit of electric potential:  0.000103643 [V]
Unit of electric field:      1.03643e+06 [V]
Unit of polarizability:      1.54587e-35 [-]
Unit of Coulomb potential:   167101.0800066561  [K]
Unit of dielectric constant: 0.0000154587       [s^2 C^2/(kg m^3)]
Unit of wave vectors:        5.3088374589       [cm^1]
Boltzmann constant:          0.8314464919       [-]

Internal conversion factors:
===========================================
Energy to Kelvin:                                    1.2027242847
FH correction factor                                 2.0211930949
Heat capacity conversion factor:                    10.0000088723
From Debye to internal units:                        4.8032067991
Isothermal compressibility conversion factor:        0.0000000602

Energy conversion factors:
===========================================
From mdyne/A to kcal/mol/A^2:           143.933
From mdyne/A to kj/mol/A^2:             602.214
From mdyne/A to K/A^2:                  72429.7
From mdyne A/rad^2 to kcal/mol/deg^2:   0.0438444


Properties computed
===========================================================================
Movies: yes
	Movie snapshots are appended to file every 1 cycles
Radial Distribution Function: no
Number of molecules GCMC histogram: no
Histogram of the molecule positions: no
Free energy profiles: no
Pore Size Distribution Function: no
End-to-end distance: no
Histogram of the energy of the system: no
Compute thermodynamic factors: no
Framework spacing histograms: no
Residence times histograms: no
Distance histograms: no
Bend Angle histograms: no
Dihedral angle histograms: no
Angle between planes histograms: no
Molecule properties: no
Infra-red spectra: no
Mean-squared displacement using modified order-N algorithm: no
Velocity-autocorrelation function modified order-N algorithm: no
Rotational velocity-autocorrelation function modified order-N algorithm: no
Molecular orientation-autocorrelation function modified order-N algorithm: no
Mean-squared displacement (conventional algorithm): no
Velocity-autocorrelation function (conventional algorithm): no
3D density grid for adsorbates: no
Compute cation an/or adsorption sites: no
dcTST snapshots: no
Compute pressure and stress: no


VTK
===========================================================================
VTK fractional-range position framework atoms: [-0.001000,1.001000] [-0.001000,1.001000] [-0.001000,1.001000]
VTK fractional-range position framework bonds: [-0.151000,1.151000] [-0.151000,1.151000] [-0.151000,1.151000]
VTK fractional-range com-position adsorbate molecules: [-0.101000,1.101000] [-0.101000,1.101000] [-0.101000,1.101000]
VTK fractional-range com-position cation molecules: [-0.101000,1.101000] [-0.101000,1.101000] [-0.101000,1.101000]
	3D free energy grid made for the full simulation-cell


Thermo/Baro-stat NHC parameters
===========================================================================
External temperature: 300.000000 [K]
Beta: 0.004009 [energy unit]
External Pressure: 0.000000 [Pa]


Thermostat chain-length: 3
Timescale parameter for thermostat: 0.150000 [ps]
Barostat chain-length:   3
Timescale parameter for barostat:   0.150000 [ps]

Number of Yoshida-Suzuki decomposition steps: 5
Number of respa steps: 5


Method and settings for electrostatics
===============================================================================
Dielectric constant of the medium : 1.000000
Charge from charge-equilibration: no
Ewald summation is used (exact solution of a periodic system)
Relative precision                : 1e-08
Alpha convergence parameter       : 0.317887
kvec (x,y,z)                      : 6 6 6


CFC-RXMC parameters
===========================================================================
Number of reactions: 0


Rattle parameters
===========================================================================
Distance constraint type: r^2-r^2_0
Bend angle constraint type: theta-theta_0
Dihedral angle constraint type: phi-phi_0
Inversion-bend angle constraint type: chi-chi_0
Out-of-plane distance constraint type: r-r_0


Spectra parameters
===========================================================================
Compute normal modes: no


Minimization parameters
===========================================================================
Generalized coordinates are: Cartesian center-of-mass, elements of the orientational matrix p1,p2,p3 and strain
Potential derivatives are evaluated: analytically
Translation of the system is removed from the generalized Hessian: no
Rotation of the system is removed from the generalized Hessian: no
Maximum step-length: 0.3
Convergence factor: 1
Maximum number of minimization steps: 10000
Use gradients in the line-minimizations: yes
RMS gradient tolerance: 1e-06
Maximum gradient tolerance: 1e-06

Distance constraints: 0
Angle constraints: 0
Dihedral constraints: 0

Improper dihedral constraints: 0

Inversion-bend constraints: 0

Out-of-plane constraints: 0

Harmonic distance constraints: 0
Harmonic angle constraints: 0
Harmonic dihedral constraints: 0

Dihedral mid-point measurements: 0

Number of fixed framework atoms: 0  (active: 240)
fixed atom-list: 
Number of active framework atoms: 240  (fixed: 0)
active atom-list: 

Fixed adsorbate atoms:  
Fixed adsorbate groups (center-of-mass):  
Fixed adsorbate groups (orientation):  

Fixed cation atoms:  
Fixed cation groups (center-of-mass):  
Fixed cation groups (orientation):  


dcTST parameters
===========================================================================
Free energy profiles computed: no
Free energy profiles written every 5000 cycles
Free energy mapping: mapped to a,b,c-coordinates
BarrierPosition:       0.0000000000       0.0000000000       0.0000000000
BarrierNormal:         0.0000000000       0.0000000000       0.0000000000
Start with a molecule on top of the barrier: no
Maximum distance to barrier (e.g. distance to minumum free energy):       0.0000000000 [A]
Maximum trajectory time:      10.0000000000 [ps]
Each configuration is used with 5 different initial velocities


Cbmc parameters
===========================================================================
Biasing method: using only the VDW part
Number of trial positions:                             10
Number of trial positions coupled Torsion-selection:   100
Number of trial position for the first bead:           10
Number of trial moves per open bead:                   150
Target acceptance ratio small-mc scheme:               0.400000
Energy overlap criteria:                               100000
Minimal Rosenbluth factor:                             1e-150


Pseudo atoms: 9
===========================================================================
Pseudo Atom[   0] Name UNIT     Oxidation: +0       Element: -    pdb-name: H    Scat. Types:   0   1 Mass=1.000000000  B-factor:1.000   
                 Charge=1.000000000          Polarization=0.000000000  [A^3] (considered a charged atom and no polarization)  Interactions:  no
                 Anisotropic factor:    0.000 [-] (Relative), Radius:    1.000 [A], Framework-atom:  no
Pseudo Atom[   1] Name O        Oxidation: +0       Element: O    pdb-name: O    Scat. Types:   9   8 Mass=15.799400000 B-factor:1.000   
                 Charge=0.869020000          Polarization=0.000000000  [A^3] (considered a charged atom and no polarization)  Interactions:  no
                 Anisotropic factor:    0.000 [-] (Relative), Radius:    0.680 [A], Framework-atom: yes (charge from pseudo-atoms file)
Pseudo Atom[   2] Name Oa       Oxidation: +0       Element: O    pdb-name: O    Scat. Types:   9   8 Mass=15.799400000 B-factor:1.000   
                 Charge=0.869020000          Polarization=0.000000000  [A^3] (considered a charged atom and no polarization)  Interactions:  no
                 Anisotropic factor:    0.000 [-] (Relative), Radius:    0.680 [A], Framework-atom:  no
Pseudo Atom[   3] Name shO      Oxidation: +0       Element: O    pdb-name: O    Scat. Types:   9   8 Mass=0.200000000  B-factor:1.000   
                 Charge=-2.869020000         Polarization=0.000000000  [A^3] (considered a charged atom and no polarization)  Interactions: yes
                 Anisotropic factor:    0.000 [-] (Relative), Radius:    0.000 [A], Framework-atom:  no
Pseudo Atom[   4] Name shOa     Oxidation: +0       Element: O    pdb-name: O    Scat. Types:   9   8 Mass=0.200000000  B-factor:1.000   
                 Charge=-2.869020000         Polarization=0.000000000  [A^3] (considered a charged atom and no polarization)  Interactions: yes
                 Anisotropic factor:    0.000 [-] (Relative), Radius:    0.000 [A], Framework-atom:  no
Pseudo Atom[   5] Name Mg       Oxidation: +0       Element: Mg   pdb-name: Mg   Scat. Types:  13  12 Mass=24.305000000 B-factor:1.000   
                 Charge=2.000000000          Polarization=0.000000000  [A^3] (considered a charged atom and no polarization)  Interactions: yes
                 Anisotropic factor:    0.000 [-] (Relative), Radius:    1.180 [A], Framework-atom:  no
Pseudo Atom[   6] Name P        Oxidation: +0       Element: p    pdb-name: P    Scat. Types:  16  15 Mass=30.973762000 B-factor:1.000   
                 Charge=5.000000000          Polarization=0.000000000  [A^3] (considered a charged atom and no polarization)  Interactions: yes
                 Anisotropic factor:    0.000 [-] (Relative), Radius:    1.180 [A], Framework-atom:  no
Pseudo Atom[   7] Name Si       Oxidation: +0       Element: Si   pdb-name: Si   Scat. Types:  15  14 Mass=28.085500000 B-factor:1.000   
                 Charge=4.000000000          Polarization=0.000000000  [A^3] (considered a charged atom and no polarization)  Interactions: yes
                 Anisotropic factor:    0.000 [-] (Relative), Radius:    1.180 [A], Framework-atom: yes (charge from pseudo-atoms file)
Pseudo Atom[   8] Name Al       Oxidation: +0       Element: Al   pdb-name: Al   Scat. Types:  14  13 Mass=26.981538600 B-factor:1.000   
                 Charge=3.000000000          Polarization=0.000000000  [A^3] (considered a charged atom and no polarization)  Interactions: yes
                 Anisotropic factor:    0.000 [-] (Relative), Radius:    1.180 [A], Framework-atom:  no


Forcefield: local
===========================================================================
CutOff VDW : 12.000000 (144.000000)
CutOff VDW switching on: 10.800000 (116.640000)
CutOff charge-charge : 12.000000 (144.000000)
CutOff charge-charge switching on: 7.800000 (60.840000)
CutOff charge-bonddipole : 12.000000 (144.000000)
CutOff charge-bondipole switching on: 8.400000 (70.560000)
CutOff bonddipole-bonddipole : 12.000000 (144.000000)
CutOff bonddipole-bondipole switching on: 9.000000 (81.000000)
Polarization is neglected
All potentials are shifted to zero at the Cutoff

No general mixing rule: all cross term specified individualy
0 cross terms are overwritten using the individual mixing rules from the file 'force_field_mixing_rules.def'
and then 11 terms are overwritten using the specific interactions from the file 'force_field.def'

The force field and all the interactions:
    shO -     shO [BUCKINGHAM] p_0/k_B: 264165308.49759 [K], p_1:  6.71141 [A^-1], p_2/k_B: 323514.32817 [K A^6], shift/k_B: -0.10834 [K]
    shO -    shOa [BUCKINGHAM] p_0/k_B: 264165308.49759 [K], p_1:  6.71141 [A^-1], p_2/k_B: 323522.43171 [K A^6], shift/k_B: -0.10835 [K]
    shO -      Mg [BUCKINGHAM] p_0/k_B: 10984877.43221 [K], p_1:  3.14337 [A^-1], p_2/k_B:  0.00000 [K A^6], shift/k_B:  0.00000 [K]
    shO -       P [BUCKINGHAM] p_0/k_B: 10180855.14820 [K], p_1:  2.78242 [A^-1], p_2/k_B:  0.00000 [K A^6], shift/k_B:  0.00000 [K]
    shO -      Si [BUCKINGHAM] p_0/k_B: 14899125.31792 [K], p_1:  3.11993 [A^-1], p_2/k_B: 123722.52547 [K A^6], shift/k_B: -0.04143 [K]
    shO -      Al [BUCKINGHAM] p_0/k_B: 16945657.06900 [K], p_1:  3.34314 [A^-1], p_2/k_B:  0.00000 [K A^6], shift/k_B:  0.00000 [K]
   shOa -    shOa [BUCKINGHAM] p_0/k_B: 264165308.49759 [K], p_1:  6.71141 [A^-1], p_2/k_B: 323514.32817 [K A^6], shift/k_B: -0.10834 [K]
   shOa -      Mg [BUCKINGHAM] p_0/k_B: 10984877.43221 [K], p_1:  3.14337 [A^-1], p_2/k_B:  0.00000 [K A^6], shift/k_B:  0.00000 [K]
   shOa -       P [BUCKINGHAM] p_0/k_B: 10180855.14820 [K], p_1:  2.78242 [A^-1], p_2/k_B:  0.00000 [K A^6], shift/k_B:  0.00000 [K]
   shOa -      Si [BUCKINGHAM] p_0/k_B: 14899125.31792 [K], p_1:  3.11993 [A^-1], p_2/k_B: 123722.52547 [K A^6], shift/k_B: -0.04143 [K]
   shOa -      Al [BUCKINGHAM] p_0/k_B: 16945657.06900 [K], p_1:  3.34314 [A^-1], p_2/k_B:  0.00000 [K A^6], shift/k_B:  0.00000 [K]


MoleculeDefinitions:
===========================================================================
No components defined in 'simulation.input'


Framework Status
===========================================================================
Lowenstein's rule obeyed by framework
	Framework is modelled as: flexible using the model of local
	==================================================================================

	Number of Core/Shell definitions: 2
	--------------------------------------------
	Core/shell pair: core [O] and shell [shO] (96 pairs)
	Core/shell pair: core [Oa] and shell [shOa] (0 pairs)

	Number of Bonds definitions: 2
	--------------------------------------------
	Bond interaction between [O-shO] using bond-type: CORE_SHELL_SPRING (96 bonds)
	  args: 1   arg[0]=869410.688484 
	Bond interaction between [Oa-shOa] using bond-type: CORE_SHELL_SPRING (0 bonds)
	  args: 1   arg[0]=869410.688484 

	Number of Bend definitions: 3
	--------------------------------------------
	Bend interaction between [shO-Si-shO] using bend-type: CORE_SHELL_BEND (288 bends)
	  args: 2   arg[0]=24337.465000 arg[1]=109.470000 
	Bend interaction between [shOa-Si-shO] using bend-type: CORE_SHELL_BEND (0 bends)
	  args: 2   arg[0]=24337.465000 arg[1]=109.470000 
	Bend interaction between [shOa-Al-shOa] using bend-type: CORE_SHELL_BEND (0 bends)
	  args: 2   arg[0]=24337.465000 arg[1]=109.470000 


	Number of core/shells:                           96
	Number of bonds:                                 96
	Number of bond-dipoles:                          0
	Number of bends:                                 288
	Number of Urey-Bradleys:                         0
	Number of Inversion bends:                       0
	Number of Torsions:                              0
	Number of Improper Torsions:                     0
	Number of Out-of-planes:                         0
	Number of bond-bond cross terms:                 0
	Number of bond-bend cross terms:                 0
	Number of bend-bend cross terms:                 0
	Number of stretch-torsion cross terms:           0
	Number of bend-torsion cross terms:              0

	Number of charges:                               144
	Number of bonddipoles:                           0

	Number of Intra VDW:                             431784
	Number of Intra Coulomb charge-charge:           431784
	Number of Intra Coulomb charge-bonddipole:       0
	Number of Intra Coulomb bonddipoles:             0
	Number of excluded Intra VDW:                    96
	Number of excluded intra charge-charge:          96
	Number of excluded intra charge-bonddipole:      0
	Number of excluded intra bonddipole-bonddipole:  0


	Number of 1-2 intra-framework pairs: 453
	Number of 1-3 intra-framework pairs: 1541
	Number of 1-4 intra-framework pairs: 2795
	Number of 1-2,1-3 intra-framework pairs: 1568
	Number of 1-2,1-3,1-4 intra-framework pairs: 2797
	Bond interactions are removed (excluded from VDW and Coulomb interactions)
	Bend interactions are *included* in the VDW and Coulomb interactions
	Torsion interactions are *included* in the VDW and Coulomb interactions
	Remove12NeighboursFromVDWInteraction no
	Remove13NeighboursFromVDWInteraction no
	Remove14NeighboursFromVDWInteraction no
	Remove12NeighboursFromChargeChargeInteraction no
	Remove13NeighboursFromChargeChargeInteraction no
	Remove14NeighboursFromChargeChargeInteraction no
	Remove11NeighboursFromChargeBondDipoleInteraction no
	Remove12NeighboursFromChargeBondDipoleInteraction no
	Remove13NeighboursFromChargeBondDipoleInteraction no
	Remove14NeighboursFromChargeBondDipoleInteraction no
	Remove12NeighboursFromBondDipoleBondDipoleInteraction no
	Remove13NeighboursFromBondDipoleBondDipoleInteraction no
	Remove14NeighboursFromBondDipoleBondDipoleInteraction no
	InternalFrameworkLennardJonesInteractions yes


System Properties
===========================================================================
Unit cell size: 15.031000 15.031000 15.031000
Cell angles (radians)  alpha: 1.570796 beta: 1.570796 gamma: 1.570796
Cell angles (degrees)  alpha: 90.000000 beta: 90.000000 gamma: 90.000000
Number of unitcells [a]: 1
Number of unitcells [b]: 1
Number of unitcells [c]: 1

TRICLINIC Boundary conditions: alpha!=90 or beta!=90 or gamma!=90

Cartesian axis A is collinear with crystallographic axis a
Cartesian axis B is collinear with (axb)xA
Cartesian axis C is collinear with (axb)

lengths of cell vectors:
 15.03100  15.03100  15.03100
cosines of cell angles:
  0.00000   0.00000   0.00000
perpendicular cell widths:
 15.03100  15.03100  15.03100
volume of the cell:  3395.968274791001 (A^3)

Orthogonalization matrix Box
Transforms fractional coordinates abc into orthonormal Cartesian coordinates xyz
Deorthogonalization matrix InverseBox
Transforms orthonormal Cartesian coordinates xyz into fractional coordinates xyz

Box[0]:
	   15.031000000000     0.000000000000     0.000000000000
	    0.000000000000    15.031000000000     0.000000000000
	    0.000000000000     0.000000000000    15.031000000000

Inverse box[0]:
	    0.066529173042    -0.000000000000    -0.000000000000
	    0.000000000000     0.066529173042    -0.000000000000
	    0.000000000000     0.000000000000     0.066529173042


Unitcell box[0]:
	   15.031000000000     0.000000000000     0.000000000000
	    0.000000000000    15.031000000000     0.000000000000
	    0.000000000000     0.000000000000    15.031000000000

Unitcell inverse box[0]:
	    0.066529173042    -0.000000000000    -0.000000000000
	    0.000000000000     0.066529173042    -0.000000000000
	    0.000000000000     0.000000000000     0.066529173042

lengths of cell vectors (inverse box):
  0.06653   0.06653   0.06653
cosines of cell angles (inverse box):
 -0.00000  -0.00000  -0.00000
perpendicular cell widths (inverse):
  0.06653   0.06653   0.06653
volume of the cell:  3395.968274791001 (A^3)

Number of Replica Cells: 2 2 2
Replica Box:
	   30.062000000000     0.000000000000     0.000000000000
	    0.000000000000    30.062000000000     0.000000000000
	    0.000000000000     0.000000000000    30.062000000000

Shift of the Replica cells:
	[cell:  0]     0.000000000000     0.000000000000     0.000000000000
	[cell:  1]     0.000000000000     0.000000000000    15.031000000000
	[cell:  2]     0.000000000000    15.031000000000     0.000000000000
	[cell:  3]     0.000000000000    15.031000000000    15.031000000000
	[cell:  4]    15.031000000000     0.000000000000     0.000000000000
	[cell:  5]    15.031000000000     0.000000000000    15.031000000000
	[cell:  6]    15.031000000000    15.031000000000     0.000000000000
	[cell:  7]    15.031000000000    15.031000000000    15.031000000000

Framework is simulated as 'flexible'
Number of framework atoms: 240
Number of framework atoms in the unit cell: 144
Framework Mass:  2884.046399999976 [g/mol]
Framework Density:  1400.834168156120 [kg/m^3]    0.7091079796874 [cm^3/g]
Helium void fraction:    0.00000000
Available pore volume:    0.00000000 [A^3]    0.00000000 [cm^3/g]
Conversion factor from molecule/unit cell -> kmol/m^3: 0.488974, kmol/m^3 accesible pore volume: inf

Number Of Frameworks (per system): 1
----------------------------------------------------------------------
Framework name: RHO
Citation:
	author name:        'L.B. McCusker and Ch. Baerlocher'
	title:              'The effect of dehydration upon the crystal structure of zeolite rho'
	journal abbrev.:    'J. Solid State Chem.'
	first page:         812
	last page:          822
	year:               1984
	special details:    'Proceedings of the 6th International Zeolite Conference, Reno 1983'
Space group: 229
	Identifier: 529
	short international Hermann-Mauguin symbol: I m -3 m
	long international Hermann-Mauguin symbol: I 4/m -3 2/m
	Hall symbol: -I 4 2 3
	Number of lattice translations: 2 [ (0,0,0) (0.5,0.5,0.5) ]
	acentric/centric: acentric
	chiral: yes
	enantiomorphic: no
	number of operators: 96
		'x,y,z'
		'-x,-y,z'
		'-x,y,-z'
		'x,-y,-z'
		'z,x,y'
		'z,-x,-y'
		'-z,-x,y'
		'-z,x,-y'
		'y,z,x'
		'-y,z,-x'
		'y,-z,-x'
		'-y,-z,x'
		'y,x,-z'
		'-y,-x,-z'
		'y,-x,z'
		'-y,x,z'
		'x,z,-y'
		'-x,z,y'
		'-x,-z,-y'
		'x,-z,y'
		'z,y,-x'
		'z,-y,x'
		'-z,y,x'
		'-z,-y,-x'
		'-x,-y,-z'
		'x,y,-z'
		'x,-y,z'
		'-x,y,z'
		'-z,-x,-y'
		'-z,x,y'
		'z,x,-y'
		'z,-x,y'
		'-y,-z,-x'
		'y,-z,x'
		'-y,z,x'
		'y,z,-x'
		'-y,-x,z'
		'y,x,z'
		'-y,x,-z'
		'y,-x,-z'
		'-x,-z,y'
		'x,-z,-y'
		'x,z,y'
		'-x,z,-y'
		'-z,-y,x'
		'-z,y,-x'
		'z,-y,-x'
		'z,y,x'
		'x+1/2,y+1/2,z+1/2'
		'-x+1/2,-y+1/2,z+1/2'
		'-x+1/2,y+1/2,-z+1/2'
		'x+1/2,-y+1/2,-z+1/2'
		'z+1/2,x+1/2,y+1/2'
		'z+1/2,-x+1/2,-y+1/2'
		'-z+1/2,-x+1/2,y+1/2'
		'-z+1/2,x+1/2,-y+1/2'
		'y+1/2,z+1/2,x+1/2'
		'-y+1/2,z+1/2,-x+1/2'
		'y+1/2,-z+1/2,-x+1/2'
		'-y+1/2,-z+1/2,x+1/2'
		'y+1/2,x+1/2,-z+1/2'
		'-y+1/2,-x+1/2,-z+1/2'
		'y+1/2,-x+1/2,z+1/2'
		'-y+1/2,x+1/2,z+1/2'
		'x+1/2,z+1/2,-y+1/2'
		'-x+1/2,z+1/2,y+1/2'
		'-x+1/2,-z+1/2,-y+1/2'
		'x+1/2,-z+1/2,y+1/2'
		'z+1/2,y+1/2,-x+1/2'
		'z+1/2,-y+1/2,x+1/2'
		'-z+1/2,y+1/2,x+1/2'
		'-z+1/2,-y+1/2,-x+1/2'
		'-x+1/2,-y+1/2,-z+1/2'
		'x+1/2,y+1/2,-z+1/2'
		'x+1/2,-y+1/2,z+1/2'
		'-x+1/2,y+1/2,z+1/2'
		'-z+1/2,-x+1/2,-y+1/2'
		'-z+1/2,x+1/2,y+1/2'
		'z+1/2,x+1/2,-y+1/2'
		'z+1/2,-x+1/2,y+1/2'
		'-y+1/2,-z+1/2,-x+1/2'
		'y+1/2,-z+1/2,x+1/2'
		'-y+1/2,z+1/2,x+1/2'
		'y+1/2,z+1/2,-x+1/2'
		'-y+1/2,-x+1/2,z+1/2'
		'y+1/2,x+1/2,z+1/2'
		'-y+1/2,x+1/2,-z+1/2'
		'y+1/2,-x+1/2,-z+1/2'
		'-x+1/2,-z+1/2,y+1/2'
		'x+1/2,-z+1/2,-y+1/2'
		'x+1/2,z+1/2,y+1/2'
		'-x+1/2,z+1/2,-y+1/2'
		'-z+1/2,-y+1/2,x+1/2'
		'-z+1/2,y+1/2,-x+1/2'
		'z+1/2,-y+1/2,-x+1/2'
		'z+1/2,y+1/2,x+1/2'
Framework is simulated as 'flexible'
Shift: 0.000000 0.000000 0.000000
Number of framework atoms: 240
Number of asymmetric atoms: 3
Number of free framework atoms: 240
Number of fixed framework atoms: 0
Number of framework atoms in the unit cell: 144
Framework Mass:  2864.846399999994 [g/mol]
Framework Density:  1400.834168156120 [kg/m^3]
Framework has net charge: -0.000000
         largest charge : 4.000000
         smallest charge: -2.869020


Current Atom Status
===========================================================================
Number of framework atoms        : 240
Number of cations molecules      : 0
Number of adsorbate molecules    : 0
Pseudo Atoms    0 [    UNIT]:    0 atoms
Pseudo Atoms    1 [       O]:   96 atoms
Pseudo Atoms    2 [      Oa]:    0 atoms
Pseudo Atoms    3 [     shO]:   96 atoms
Pseudo Atoms    4 [    shOa]:    0 atoms
Pseudo Atoms    5 [      Mg]:    0 atoms
Pseudo Atoms    6 [       P]:    0 atoms
Pseudo Atoms    7 [      Si]:   48 atoms
Pseudo Atoms    8 [      Al]:    0 atoms


Current (initial full energy) Energy Status
===========================================================================

Internal energy:
Host stretch energy:                                       453682.44424868
Host UreyBradley energy:                                        0.00000000
Host bend energy:                                           58596.28734253
Host inversion-bend energy:                                     0.00000000
Host torsion energy:                                            0.00000000
Host improper torsion energy:                                   0.00000000
Host out-of-plane energy:                                       0.00000000
Host stretch/stretch energy:                                    0.00000000
Host bend/bend energy:                                          0.00000000
Host stretch/bend energy:                                       0.00000000
Host stretch/torsion energy:                                    0.00000000
Host bend/torsion energy:                                       0.00000000

Adsorbate stretch energy:                                       0.00000000
Adsorbate UreyBradley energy:                                   0.00000000
Adsorbate bend energy:                                          0.00000000
Adsorbate inversion-bend energy:                                0.00000000
Adsorbate torsion energy:                                       0.00000000
Adsorbate improper torsion energy:                              0.00000000
Adsorbate out-of-plane energy:                                  0.00000000
Adsorbate stretch/stretch energy:                               0.00000000
Adsorbate bend/bend energy:                                     0.00000000
Adsorbate stretch/bend energy:                                  0.00000000
Adsorbate stretch/torsion energy:                               0.00000000
Adsorbate bend/torsion energy:                                  0.00000000
Adsorbate intra VDW energy:                                     0.00000000
Adsorbate intra charge-charge Coulomb energy:                   0.00000000
Adsorbate intra charge-bonddipole Coulomb energy:               0.00000000
Adsorbate intra bonddipole-bonddipole Coulomb energy:           0.00000000

Cation stretch energy:                                          0.00000000
Cation UreyBradley energy:                                      0.00000000
Cation bend energy:                                             0.00000000
Cation inversion-bend energy:                                   0.00000000
Cation torsion energy:                                          0.00000000
Cation improper torsion energy:                                 0.00000000
Cation out-of-plane energy:                                     0.00000000
Cation stretch/stretch energy:                                  0.00000000
Cation bend/bend energy:                                        0.00000000
Cation stretch/bend energy:                                     0.00000000
Cation stretch/torsion energy:                                  0.00000000
Cation bend/torsion energy:                                     0.00000000
Cation intra VDW energy:                                        0.00000000
Cation intra charge-charge Coulomb energy:                      0.00000000
Cation intra charge-bonddipole Coulomb energy:                  0.00000000
Cation intra bonddipole-bonddipole Coulomb energy:              0.00000000

Host/Host energy:                                     -69772420.47975196
	Host/Host VDW energy:                                  14826588.54445020
	Host/Host Coulomb energy:                             -84599009.02420217
	Host/Host charge-charge Real energy:                  -50359078.26627769
	Host/Host charge-charge Fourier energy:               -34239930.75792447
	Host/Host charge-bonddipole Real energy:                      0.00000000
	Host/Host charge-bonddipole Fourier energy:                   0.00000000
	Host/Host bondipole-bonddipole Real energy:                   0.00000000
	Host/Host bondipole-bonddipole Fourier energy:                0.00000000

Host/Adsorbate energy:                                        0.00000000
	Host/Adsorbate VDW energy:                                    0.00000000
	Host/Adsorbate Coulomb energy:                                0.00000000
	Host/Adsorbate charge-charge Real energy:                     0.00000000
	Host/Adsorbate charge-charge Fourier energy:                  0.00000000
	Host/Adsorbate charge-bonddipole Real energy:                 0.00000000
	Host/Adsorbate charge-bonddipole Fourier energy:              0.00000000
	Host/Adsorbate bondipole-bonddipole Real energy:              0.00000000
	Host/Adsorbate bondipole-bonddipole Fourier energy:           0.00000000

Host/Cation energy:                                           0.00000000
	Host/Cation VDW energy:                                       0.00000000
	Host/Cation Coulomb energy:                                   0.00000000
	Host/Cation charge-charge Real energy:                        0.00000000
	Host/Cation charge-charge Fourier energy:                     0.00000000
	Host/Cation charge-bonddipole Real energy:                    0.00000000
	Host/Cation charge-bonddipole Fourier energy:                 0.00000000
	Host/Cation bondipole-bonddipole Real energy:                 0.00000000
	Host/Cation bondipole-bonddipole Fourier energy:              0.00000000

Adsorbate/Adsorbate energy:                                        0.00000000
	Adsorbate/Adsorbate VDW energy:                                    0.00000000
	Adsorbate/Adsorbate Coulomb energy:                                0.00000000
	Adsorbate/Adsorbate charge-charge Real energy:                     0.00000000
	Adsorbate/Adsorbate charge-charge Fourier energy:                  0.00000000
	Adsorbate/Adsorbate charge-bonddipole Real energy:                 0.00000000
	Adsorbate/Adsorbate charge-bonddipole Fourier energy:              0.00000000
	Adsorbate/Adsorbate bondipole-bonddipole Real energy:              0.00000000
	Adsorbate/Adsorbate bondipole-bonddipole Fourier energy:           0.00000000

Adsorbate/Cation energy:                                           0.00000000
	Adsorbate/Cation VDW energy:                                       0.00000000
	Adsorbate/Cation Coulomb energy:                                   0.00000000
	Adsorbate/Cation charge-charge Real energy:                        0.00000000
	Adsorbate/Cation charge-charge Fourier energy:                     0.00000000
	Adsorbate/Cation charge-bonddipole Real energy:                    0.00000000
	Adsorbate/Cation charge-bonddipole Fourier energy:                 0.00000000
	Adsorbate/Cation bondipole-bonddipole Real energy:                 0.00000000
	Adsorbate/Cation bondipole-bonddipole Fourier energy:              0.00000000

Cation/Cation energy:                                           0.00000000
	Cation/Cation VDW energy:                                       0.00000000
	Cation/Cation Coulomb energy:                                   0.00000000
	Cation/Cation charge-charge Real energy:                        0.00000000
	Cation/Cation charge-charge Fourier energy:                     0.00000000
	Cation/Cation charge-bonddipole Real energy:                    0.00000000
	Cation/Cation charge-bonddipole Fourier energy:                 0.00000000
	Cation/Cation bondipole-bonddipole Real energy:                 0.00000000
	Cation/Cation bondipole-bonddipole Fourier energy:              0.00000000

Polarization energy:
	Host polarization energy:                                     0.00000000
	Adsorbate polarization energy:                                0.00000000
	Cation polarization energy:                                   0.00000000
	Host back-polarization energy:                                     0.00000000
	Adsorbate back-polarization energy:                                0.00000000
	Cation back-polarization energy:                                   0.00000000

Tail-correction energy:                                       0.00000000

Distance constraints energy:                                  0.00000000
Angle constraints energy:                                     0.00000000
Dihedral constraints energy:                                  0.00000000
Inversion-bend constraints energy:                            0.00000000
Out-of-plane distance constraints energy:                     0.00000000
Exclusion constraints energy:                                 0.00000000

===================================================================
Total energy: -69260141.748160749674
	Total Van der Waals: 14826588.544450
	Total Coulomb: -84599009.024202

	Total Polarization: 0.000000







+++++++++++++++++++++++++++++++++++++++++++++++++++++++++++++++++++++++++
Starting simulation
+++++++++++++++++++++++++++++++++++++++++++++++++++++++++++++++++++++++++

Total number of variables used in the minimization: 721
Number of cell-variables used in the minimization: 1
Total number of variables used for generalized coordinates in the minimization: 720
Total number of variables used for positions in the minimization: 720
Total number of variables used for orientation in the minimization: 0

Minimization initial volume:    3395.9682747910 [A^3]
Minimization initial energy: -69260141.7481610179 [K]
Minimization initial strain:       0.0000000000 [-]
Minimization initial box:      15.0310000000       0.0000000000       0.0000000000[-]
                                0.0000000000      15.0310000000       0.0000000000[-]
                                0.0000000000       0.0000000000      15.0310000000[-]

Beginning Baker minimization:
-----------------------------
Computing generalized Hessian matrix
Computing eigenvalues and vectors
Shifting parameter: -1877068.6243310664 Lowest eigenvalue:  -45068.6243310663
Iteration: 0 Energy: -69260141.7481610179 Volume:    3395.9682747910 RMS gradient: 12027.8  Max gradient: 8.31878e+06 Number of negative eigenvalues: 21 Number of zero eigenvalues: 3
      Box:      15.0310000000       0.0000000000       0.0000000000     Strain derivative: 2827407.2852468826  140896.6219343730  208955.8336275841
                 0.0000000000      15.0310000000       0.0000000000                         140896.6219343744 2656050.9965997380  174996.6280957074
                 0.0000000000       0.0000000000      15.0310000000                         208955.8336275835  174996.6280957067 2835318.4097150355
      Lengths:      15.0310000000      15.0310000000      15.0310000000, Angles:      90.0000000000      90.0000000000      90.0000000000

Computing generalized Hessian matrix
Computing eigenvalues and vectors
Shifting parameter: -1252783.8257683429 Lowest eigenvalue:   -7483.8257683429
Iteration: 1 Energy: -70169415.0228017569 Volume:    3223.6855994618 RMS gradient: 6706.79  Max gradient: 4.44121e+06 Number of negative eigenvalues: 10 Number of zero eigenvalues: 3
      Box:      14.7723943641       0.0000000000       0.0000000000     Strain derivative: 1529085.3654299860   75186.1016692164  133946.2772187500
                 0.0000000000      14.7723943641       0.0000000000                          75186.1016692167 1400866.7034337586  108165.4503441750
                 0.0000000000       0.0000000000      14.7723943641                         133946.2772187498  108165.4503441739 1511261.3027922157
      Lengths:      14.7723943641      14.7723943641      14.7723943641, Angles:      90.0000000000      90.0000000000      90.0000000000

Computing generalized Hessian matrix
Computing eigenvalues and vectors
Shifting parameter: -775377.2608643768 Lowest eigenvalue:     280.3376263792
Iteration: 2 Energy: -70780539.9770129323 Volume:    3145.1352907910 RMS gradient: 3791.38  Max gradient: 2.35429e+06 Number of negative eigenvalues: 0 Number of zero eigenvalues: 3
      Box:      14.6514219959       0.0000000000       0.0000000000     Strain derivative:  829160.2863147024   29307.0026911252   75948.7304319713
                 0.0000000000      14.6514219959       0.0000000000                          29307.0026911253  733832.6184635463   59096.9174754585
                 0.0000000000       0.0000000000      14.6514219959                          75948.7304319713   59096.9174754586  791295.9269572945
      Lengths:      14.6514219959      14.6514219959      14.6514219959, Angles:      90.0000000000      90.0000000000      90.0000000000

Computing generalized Hessian matrix
Computing eigenvalues and vectors
Shifting parameter: -397996.2991319153 Lowest eigenvalue:    1435.5952551340
Iteration: 3 Energy: -71179984.7772134542 Volume:    3106.2448956426 RMS gradient: 2036.08  Max gradient: 1.1653e+06 Number of negative eigenvalues: 0 Number of zero eigenvalues: 3
      Box:      14.5907818455       0.0000000000       0.0000000000     Strain derivative:  427178.7174727222    2041.3055402649   34620.7867367068
                 0.0000000000      14.5907818455       0.0000000000                           2041.3055402644  358670.2576721553   27299.9373140314
                 0.0000000000       0.0000000000      14.5907818455                          34620.7867367066   27299.9373140319  379450.5627414070
      Lengths:      14.5907818455      14.5907818455      14.5907818455, Angles:      90.0000000000      90.0000000000      90.0000000000

Computing generalized Hessian matrix
Computing eigenvalues and vectors
Shifting parameter: -167961.9940733903 Lowest eigenvalue:    1642.3523278049
Iteration: 4 Energy: -71398392.7596831173 Volume:    3093.7402943679 RMS gradient: 981.119  Max gradient: 522716 Number of negative eigenvalues: 0 Number of zero eigenvalues: 3
      Box:      14.5711764707       0.0000000000       0.0000000000     Strain derivative:  205269.9283924995   -7601.0596484578   10989.2088206096
                 0.0000000000      14.5711764707       0.0000000000                          -7601.0596484581  157949.7833030785   11721.7019634318
                 0.0000000000       0.0000000000      14.5711764707                          10989.2088206093   11721.7019634330  159496.2874794186
      Lengths:      14.5711764707      14.5711764707      14.5711764707, Angles:      90.0000000000      90.0000000000      90.0000000000

Computing generalized Hessian matrix
Computing eigenvalues and vectors
Shifting parameter:  -86796.1840565205 Lowest eigenvalue:    1435.4592584145
Iteration: 5 Energy: -71486436.7986733764 Volume:    3107.8162518498 RMS gradient: 516.659  Max gradient: 273824 Number of negative eigenvalues: 0 Number of zero eigenvalues: 3
      Box:      14.5932417772       0.0000000000       0.0000000000     Strain derivative:  115436.6157746416   -6998.6123714743    3001.0365935414
                 0.0000000000      14.5932417772       0.0000000000                          -6998.6123714744   80659.6321347171    6297.8886366727
                 0.0000000000       0.0000000000      14.5932417772                           3001.0365935410    6297.8886366726   77728.2443093184
      Lengths:      14.5932417772      14.5932417772      14.5932417772, Angles:      90.0000000000      90.0000000000      90.0000000000

Computing generalized Hessian matrix
Computing eigenvalues and vectors
Shifting parameter:  -53100.2193828201 Lowest eigenvalue:    1179.1745908328
Iteration: 6 Energy: -71528706.1812596321 Volume:    3132.9339498375 RMS gradient: 325.489  Max gradient: 182859 Number of negative eigenvalues: 0 Number of zero eigenvalues: 3
      Box:      14.6324510402       0.0000000000       0.0000000000     Strain derivative:   80272.1144620987   -5066.1568860638     856.0498868615
                 0.0000000000      14.6324510402       0.0000000000                          -5066.1568860641   52743.8205055097    3607.4608338736
                 0.0000000000       0.0000000000      14.6324510402                            856.0498868615    3607.4608338743   49843.2962668077
      Lengths:      14.6324510402      14.6324510402      14.6324510402, Angles:      90.0000000000      90.0000000000      90.0000000000

Computing generalized Hessian matrix
Computing eigenvalues and vectors
Shifting parameter:  -31133.4372487732 Lowest eigenvalue:     917.5212474538
Iteration: 7 Energy: -71554826.5281083137 Volume:    3160.5578140274 RMS gradient: 221.95  Max gradient: 135063 Number of negative eigenvalues: 0 Number of zero eigenvalues: 3
      Box:      14.6753312541       0.0000000000       0.0000000000     Strain derivative:   60333.6687694474   -3363.1334352355     308.0139664482
                 0.0000000000      14.6753312541       0.0000000000                          -3363.1334352362   38306.5276040574    1724.8341897635
                 0.0000000000       0.0000000000      14.6753312541                            308.0139664471    1724.8341897624   36422.5522712025
      Lengths:      14.6753312541      14.6753312541      14.6753312541, Angles:      90.0000000000      90.0000000000      90.0000000000

Computing generalized Hessian matrix
Computing eigenvalues and vectors
Shifting parameter:  -14762.3059193120 Lowest eigenvalue:     657.4396147733
Iteration: 8 Energy: -71571185.3231347501 Volume:    3187.9626253876 RMS gradient: 153.739  Max gradient: 100789 Number of negative eigenvalues: 0 Number of zero eigenvalues: 3
      Box:      14.7176252492       0.0000000000       0.0000000000     Strain derivative:   45078.1237186689   -1953.2770123891     277.7613457820
                 0.0000000000      14.7176252492       0.0000000000                          -1953.2770123896   28188.6914917606     363.5561317223
                 0.0000000000       0.0000000000      14.7176252492                            277.7613457827     363.5561317221   27521.7832498648
      Lengths:      14.7176252492      14.7176252492      14.7176252492, Angles:      90.0000000000      90.0000000000      90.0000000000

Computing generalized Hessian matrix
Computing eigenvalues and vectors
Shifting parameter:   -4116.7648433902 Lowest eigenvalue:     416.8346725919
Iteration: 9 Energy: -71579891.9159245193 Volume:    3212.2739407183 RMS gradient: 97.4012  Max gradient: 67655.3 Number of negative eigenvalues: 0 Number of zero eigenvalues: 3
      Box:      14.7549426174       0.0000000000       0.0000000000     Strain derivative:   29738.0710502822    -740.6275920648     306.8570192496
                 0.0000000000      14.7549426174       0.0000000000                           -740.6275920649   18768.4671352922    -421.9601037457
                 0.0000000000       0.0000000000      14.7549426174                            306.8570192495    -421.9601037460   19148.7594445931
      Lengths:      14.7549426174      14.7549426174      14.7549426174, Angles:      90.0000000000      90.0000000000      90.0000000000

Computing generalized Hessian matrix
Computing eigenvalues and vectors
Shifting parameter:    -374.4257274170 Lowest eigenvalue:     280.5821323482
Iteration: 10 Energy: -71582585.8611383885 Volume:    3224.8054920108 RMS gradient: 44.8104  Max gradient: 32124.9 Number of negative eigenvalues: 0 Number of zero eigenvalues: 3
      Box:      14.7741047851       0.0000000000       0.0000000000     Strain derivative:   13031.8955870856      99.7033066458     180.8127777618
                 0.0000000000      14.7741047851       0.0000000000                             99.7033066446    9201.7887782080    -423.2079398159
                 0.0000000000       0.0000000000      14.7741047851                            180.8127777611    -423.2079398162    9891.1996940036
      Lengths:      14.7741047851      14.7741047851      14.7741047851, Angles:      90.0000000000      90.0000000000      90.0000000000

Computing generalized Hessian matrix
Computing eigenvalues and vectors
Shifting parameter:      -2.3329524288 Lowest eigenvalue:     281.7688557070
Iteration: 11 Energy: -71582822.7233695537 Volume:    3222.9837419981 RMS gradient: 6.7483  Max gradient: 4857.69 Number of negative eigenvalues: 0 Number of zero eigenvalues: 3
      Box:      14.7713222095       0.0000000000       0.0000000000     Strain derivative:    1757.6993305680      48.9259680533      30.5701242005
                 0.0000000000      14.7713222095       0.0000000000                             48.9259680534    1464.1861827322     -60.2197210067
                 0.0000000000       0.0000000000      14.7713222095                             30.5701242001     -60.2197210062    1635.8043100843
      Lengths:      14.7713222095      14.7713222095      14.7713222095, Angles:      90.0000000000      90.0000000000      90.0000000000

Computing generalized Hessian matrix
Computing eigenvalues and vectors
Shifting parameter:      -0.0010081122 Lowest eigenvalue:     281.1712784902
Iteration: 12 Energy: -71582824.1285359859 Volume:    3222.5918656162 RMS gradient: 0.231097  Max gradient: 166.55 Number of negative eigenvalues: 0 Number of zero eigenvalues: 3
      Box:      14.7707235131       0.0000000000       0.0000000000     Strain derivative:     -52.6718014384       1.0347418148       0.6718113210
                 0.0000000000      14.7707235131       0.0000000000                              1.0347418147     -58.9638387672      -1.2046382570
                 0.0000000000       0.0000000000      14.7707235131                              0.6718113222      -1.2046382570     -54.9148320745
      Lengths:      14.7707235131      14.7707235131      14.7707235131, Angles:      90.0000000000      90.0000000000      90.0000000000

Computing generalized Hessian matrix
Computing eigenvalues and vectors
Shifting parameter:      -0.0000002678 Lowest eigenvalue:     281.3657973176
Iteration: 13 Energy: -71582824.1291416883 Volume:    3222.5970672271 RMS gradient: 0.00142205  Max gradient: 1.0204 Number of negative eigenvalues: 0 Number of zero eigenvalues: 3
      Box:      14.7707314602       0.0000000000       0.0000000000     Strain derivative:       0.3895137617       0.0179265394       0.0116838794
                 0.0000000000      14.7707314602       0.0000000000                              0.0179265389       0.2801676610      -0.0208828865
                 0.0000000000       0.0000000000      14.7707314602                              0.0116838790      -0.0208828868       0.3507203083
      Lengths:      14.7707314602      14.7707314602      14.7707314602, Angles:      90.0000000000      90.0000000000      90.0000000000

Computing generalized Hessian matrix
Computing eigenvalues and vectors
Shifting parameter:      -0.0000000001 Lowest eigenvalue:     281.3660196334
Iteration: 14 Energy: -71582824.1291428655 Volume:    3222.5969752985 RMS gradient: 7.08216e-05  Max gradient: 0.0510416 Number of negative eigenvalues: 0 Number of zero eigenvalues: 3
      Box:      14.7707313198       0.0000000000       0.0000000000     Strain derivative:      -0.0161593953       0.0003104198       0.0002023300
                 0.0000000000      14.7707313198       0.0000000000                              0.0003104201      -0.0180525832      -0.0003616003
                 0.0000000000       0.0000000000      14.7707313198                              0.0002023294      -0.0003616016      -0.0168318035
      Lengths:      14.7707313198      14.7707313198      14.7707313198, Angles:      90.0000000000      90.0000000000      90.0000000000

Computing generalized Hessian matrix
Computing eigenvalues and vectors
Shifting parameter:      -0.0000000000 Lowest eigenvalue:     281.3660787848
Iteration: 15 Energy: -71582824.1291416883 Volume:    3222.5969769181 RMS gradient: 4.46609e-07  Max gradient: 0.000320591 Number of negative eigenvalues: 0 Number of zero eigenvalues: 3
      Box:      14.7707313223       0.0000000000       0.0000000000     Strain derivative:       0.0001219754       0.0000053798       0.0000034971
                 0.0000000000      14.7707313223       0.0000000000                              0.0000053791       0.0000889208      -0.0000062743
                 0.0000000000       0.0000000000      14.7707313223                              0.0000034963      -0.0000062744       0.0001093124
      Lengths:      14.7707313223      14.7707313223      14.7707313223, Angles:      90.0000000000      90.0000000000      90.0000000000

Computing generalized Hessian matrix
Computing eigenvalues and vectors
Shifting parameter:      -0.0000000000 Lowest eigenvalue:     281.3660788400
Iteration: 16 Energy: -71582824.1291422248 Volume:    3222.5969768900 RMS gradient: 1.63042e-08  Max gradient: 1.17472e-05 Number of negative eigenvalues: 0 Number of zero eigenvalues: 3
      Box:      14.7707313222       0.0000000000       0.0000000000     Strain derivative:      -0.0000040257       0.0000000893       0.0000000608
                 0.0000000000      14.7707313222       0.0000000000                              0.0000000899      -0.0000047149      -0.0000001135
                 0.0000000000       0.0000000000      14.7707313222                              0.0000000608      -0.0000001138      -0.0000050484
      Lengths:      14.7707313222      14.7707313222      14.7707313222, Angles:      90.0000000000      90.0000000000      90.0000000000

Computing generalized Hessian matrix
Computing eigenvalues and vectors
Shifting parameter:      -0.0000000000 Lowest eigenvalue:     281.3660788568
Iteration: 17 Energy: -71582824.1291413307 Volume:    3222.5969768903 RMS gradient: 9.58274e-10  Max gradient: 6.90412e-07 Number of negative eigenvalues: 0 Number of zero eigenvalues: 3
      Box:      14.7707313222       0.0000000000       0.0000000000     Strain derivative:      -0.0000002518      -0.0000000019       0.0000000086
                 0.0000000000      14.7707313222       0.0000000000                             -0.0000000027      -0.0000001997       0.0000000050
                 0.0000000000       0.0000000000      14.7707313222                              0.0000000084       0.0000000043      -0.0000009127
      Lengths:      14.7707313222      14.7707313222      14.7707313222, Angles:      90.0000000000      90.0000000000      90.0000000000

SUCCES: RMS Gradient tolerance 1e-06 reached (9.58274e-10)
        Max Gradient tolerance 1e-06 reached (6.90412e-07)


Variable vector:
================
x: 0 = 3.77885
x: 1 = 1.57742
x: 2 = 5.97939
x: 3 = 3.34266
x: 4 = 0.0198492
x: 5 = 5.73277
x: 6 = 2.49034
x: 7 = 2.48909
x: 8 = 5.56695
x: 9 = -1.53648
x: 10 = 3.7776
x: 11 = 5.97939
x: 12 = 0.021095
x: 13 = 3.34142
x: 14 = 5.73277
x: 15 = -2.44815
x: 16 = 2.48909
x: 17 = 5.56695
x: 18 = -3.73665
x: 19 = -1.53772
x: 20 = 5.97939
x: 21 = -3.30047
x: 22 = 0.0198492
x: 23 = 5.73277
x: 24 = -2.44815
x: 25 = -2.4494
x: 26 = 5.56695
x: 27 = 1.57867
x: 28 = -3.7379
x: 29 = 5.97939
x: 30 = 0.021095
x: 31 = -3.30172
x: 32 = 5.73277
x: 33 = 2.49034
x: 34 = -2.4494
x: 35 = 5.56695
x: 36 = 3.77885
x: 37 = -1.53772
x: 38 = -5.93647
x: 39 = 3.34266
x: 40 = 0.0198492
x: 41 = -5.68984
x: 42 = 2.49034
x: 43 = -2.4494
x: 44 = -5.52403
x: 45 = 1.57867
x: 46 = 3.7776
x: 47 = -5.93647
x: 48 = 0.021095
x: 49 = 3.34142
x: 50 = -5.68984
x: 51 = 2.49034
x: 52 = 2.48909
x: 53 = -5.52403
x: 54 = -3.73665
x: 55 = 1.57742
x: 56 = -5.93647
x: 57 = -3.30047
x: 58 = 0.0198492
x: 59 = -5.68984
x: 60 = -2.44815
x: 61 = 2.48909
x: 62 = -5.52403
x: 63 = -1.53648
x: 64 = -3.7379
x: 65 = -5.93647
x: 66 = 0.021095
x: 67 = -3.30172
x: 68 = -5.68984
x: 69 = -2.44815
x: 70 = -2.4494
x: 71 = -5.52403
x: 72 = 5.97902
x: 73 = 3.7776
x: 74 = 1.57903
x: 75 = 5.7324
x: 76 = 3.34142
x: 77 = 0.0214638
x: 78 = 5.56658
x: 79 = 2.48909
x: 80 = 2.49071
x: 81 = -3.73665
x: 82 = 5.97778
x: 83 = 1.57903
x: 84 = -3.30047
x: 85 = 5.73115
x: 86 = 0.0214638
x: 87 = -2.44815
x: 88 = 5.56534
x: 89 = 2.49071
x: 90 = -5.93683
x: 91 = -3.7379
x: 92 = 1.57903
x: 93 = -5.69021
x: 94 = -3.30172
x: 95 = 0.0214638
x: 96 = -5.52439
x: 97 = -2.4494
x: 98 = 2.49071
x: 99 = 3.77885
x: 100 = -5.93808
x: 101 = 1.57903
x: 102 = 3.34266
x: 103 = -5.69145
x: 104 = 0.0214638
x: 105 = 2.49034
x: 106 = -5.52564
x: 107 = 2.49071
x: 108 = 5.97902
x: 109 = -3.7379
x: 110 = -1.53611
x: 111 = 5.7324
x: 112 = -3.30172
x: 113 = 0.0214638
x: 114 = 5.56658
x: 115 = -2.4494
x: 116 = -2.44778
x: 117 = 3.77885
x: 118 = 5.97778
x: 119 = -1.53611
x: 120 = 3.34266
x: 121 = 5.73115
x: 122 = 0.0214638
x: 123 = 2.49034
x: 124 = 5.56534
x: 125 = -2.44778
x: 126 = -5.93683
x: 127 = 3.7776
x: 128 = -1.53611
x: 129 = -5.69021
x: 130 = 3.34142
x: 131 = 0.0214638
x: 132 = -5.52439
x: 133 = 2.48909
x: 134 = -2.44778
x: 135 = -3.73665
x: 136 = -5.93808
x: 137 = -1.53611
x: 138 = -3.30047
x: 139 = -5.69145
x: 140 = 0.0214638
x: 141 = -2.44815
x: 142 = -5.52564
x: 143 = -2.44778
x: 144 = 1.57867
x: 145 = 5.97778
x: 146 = 3.77921
x: 147 = 0.021095
x: 148 = 5.73115
x: 149 = 3.34303
x: 150 = 2.49034
x: 151 = 5.56534
x: 152 = 2.49071
x: 153 = 1.57867
x: 154 = -5.93808
x: 155 = -3.73629
x: 156 = 0.021095
x: 157 = -5.69145
x: 158 = -3.30011
x: 159 = 2.49034
x: 160 = -5.52564
x: 161 = -2.44778
x: 162 = 5.97902
x: 163 = 1.57742
x: 164 = -3.73629
x: 165 = 5.7324
x: 166 = 0.0198492
x: 167 = -3.30011
x: 168 = 5.56658
x: 169 = 2.48909
x: 170 = -2.44778
x: 171 = -1.53648
x: 172 = 5.97778
x: 173 = -3.73629
x: 174 = 0.021095
x: 175 = 5.73115
x: 176 = -3.30011
x: 177 = -2.44815
x: 178 = 5.56534
x: 179 = -2.44778
x: 180 = -5.93683
x: 181 = -1.53772
x: 182 = -3.73629
x: 183 = -5.69021
x: 184 = 0.0198492
x: 185 = -3.30011
x: 186 = -5.52439
x: 187 = -2.4494
x: 188 = -2.44778
x: 189 = -1.53648
x: 190 = -5.93808
x: 191 = 3.77921
x: 192 = 0.021095
x: 193 = -5.69145
x: 194 = 3.34303
x: 195 = -2.44815
x: 196 = -5.52564
x: 197 = 2.49071
x: 198 = 5.97902
x: 199 = -1.53772
x: 200 = 3.77921
x: 201 = 5.7324
x: 202 = 0.0198492
x: 203 = 3.34303
x: 204 = 5.56658
x: 205 = -2.4494
x: 206 = 2.49071
x: 207 = -5.93683
x: 208 = 1.57742
x: 209 = 3.77921
x: 210 = -5.69021
x: 211 = 0.0198492
x: 212 = 3.34303
x: 213 = -5.52439
x: 214 = 2.48909
x: 215 = 2.49071
x: 216 = -3.73665
x: 217 = -1.53772
x: 218 = -5.93647
x: 219 = 1.57867
x: 220 = -3.7379
x: 221 = -5.93647
x: 222 = 3.77885
x: 223 = 1.57742
x: 224 = -5.93647
x: 225 = -1.53648
x: 226 = 3.7776
x: 227 = -5.93647
x: 228 = -3.73665
x: 229 = 1.57742
x: 230 = 5.97939
x: 231 = -1.53648
x: 232 = -3.7379
x: 233 = 5.97939
x: 234 = 3.77885
x: 235 = -1.53772
x: 236 = 5.97939
x: 237 = 1.57867
x: 238 = 3.7776
x: 239 = 5.97939
x: 240 = -5.93683
x: 241 = -3.7379
x: 242 = -1.53611
x: 243 = 3.77885
x: 244 = -5.93808
x: 245 = -1.53611
x: 246 = 5.97902
x: 247 = 3.7776
x: 248 = -1.53611
x: 249 = -3.73665
x: 250 = 5.97778
x: 251 = -1.53611
x: 252 = -5.93683
x: 253 = 3.7776
x: 254 = 1.57903
x: 255 = -3.73665
x: 256 = -5.93808
x: 257 = 1.57903
x: 258 = 5.97902
x: 259 = -3.7379
x: 260 = 1.57903
x: 261 = 3.77885
x: 262 = 5.97778
x: 263 = 1.57903
x: 264 = -1.53648
x: 265 = -5.93808
x: 266 = -3.73629
x: 267 = -1.53648
x: 268 = 5.97778
x: 269 = 3.77921
x: 270 = -5.93683
x: 271 = -1.53772
x: 272 = 3.77921
x: 273 = 1.57867
x: 274 = -5.93808
x: 275 = 3.77921
x: 276 = 5.97902
x: 277 = 1.57742
x: 278 = 3.77921
x: 279 = 1.57867
x: 280 = 5.97778
x: 281 = -3.73629
x: 282 = -5.93683
x: 283 = 1.57742
x: 284 = -3.73629
x: 285 = 5.97902
x: 286 = -1.53772
x: 287 = -3.73629
x: 288 = 10.8582
x: 289 = 7.53535
x: 290 = 13.2483
x: 291 = 10.0058
x: 292 = 10.0046
x: 293 = 13.0825
x: 294 = 7.5366
x: 295 = 10.8569
x: 296 = 13.2483
x: 297 = 5.06735
x: 298 = 10.0046
x: 299 = 13.0825
x: 300 = 4.21503
x: 301 = 7.53535
x: 302 = 13.2483
x: 303 = 5.06735
x: 304 = 5.0661
x: 305 = 13.0825
x: 306 = 7.5366
x: 307 = 4.21378
x: 308 = 13.2483
x: 309 = 10.0058
x: 310 = 5.0661
x: 311 = 13.0825
x: 312 = 10.8582
x: 313 = 7.53535
x: 314 = 1.82566
x: 315 = 10.0058
x: 316 = 5.0661
x: 317 = 1.99147
x: 318 = 7.5366
x: 319 = 10.8569
x: 320 = 1.82566
x: 321 = 10.0058
x: 322 = 10.0046
x: 323 = 1.99147
x: 324 = 4.21503
x: 325 = 7.53535
x: 326 = 1.82566
x: 327 = 5.06735
x: 328 = 10.0046
x: 329 = 1.99147
x: 330 = 7.5366
x: 331 = 4.21378
x: 332 = 1.82566
x: 333 = 5.06735
x: 334 = 5.0661
x: 335 = 1.99147
x: 336 = 13.2479
x: 337 = 10.8569
x: 338 = 7.53696
x: 339 = 13.0821
x: 340 = 10.0046
x: 341 = 10.0062
x: 342 = 4.21503
x: 343 = 13.2467
x: 344 = 7.53696
x: 345 = 5.06735
x: 346 = 13.0808
x: 347 = 10.0062
x: 348 = 1.82529
x: 349 = 4.21378
x: 350 = 7.53696
x: 351 = 1.99111
x: 352 = 5.0661
x: 353 = 10.0062
x: 354 = 10.8582
x: 355 = 1.82405
x: 356 = 7.53696
x: 357 = 10.0058
x: 358 = 1.98986
x: 359 = 10.0062
x: 360 = 13.2479
x: 361 = 4.21378
x: 362 = 7.53696
x: 363 = 13.0821
x: 364 = 5.0661
x: 365 = 5.06772
x: 366 = 10.8582
x: 367 = 13.2467
x: 368 = 7.53696
x: 369 = 10.0058
x: 370 = 13.0808
x: 371 = 5.06772
x: 372 = 1.82529
x: 373 = 10.8569
x: 374 = 7.53696
x: 375 = 1.99111
x: 376 = 10.0046
x: 377 = 5.06772
x: 378 = 4.21503
x: 379 = 1.82405
x: 380 = 7.53696
x: 381 = 5.06735
x: 382 = 1.98986
x: 383 = 5.06772
x: 384 = 7.5366
x: 385 = 13.2467
x: 386 = 10.8585
x: 387 = 10.0058
x: 388 = 13.0808
x: 389 = 10.0062
x: 390 = 7.5366
x: 391 = 1.82405
x: 392 = 4.21539
x: 393 = 10.0058
x: 394 = 1.98986
x: 395 = 5.06772
x: 396 = 13.2479
x: 397 = 7.53535
x: 398 = 4.21539
x: 399 = 13.0821
x: 400 = 10.0046
x: 401 = 5.06772
x: 402 = 7.5366
x: 403 = 13.2467
x: 404 = 4.21539
x: 405 = 5.06735
x: 406 = 13.0808
x: 407 = 5.06772
x: 408 = 1.82529
x: 409 = 7.53535
x: 410 = 4.21539
x: 411 = 1.99111
x: 412 = 5.0661
x: 413 = 5.06772
x: 414 = 7.5366
x: 415 = 1.82405
x: 416 = 10.8585
x: 417 = 5.06735
x: 418 = 1.98986
x: 419 = 10.0062
x: 420 = 13.2479
x: 421 = 7.53535
x: 422 = 10.8585
x: 423 = 13.0821
x: 424 = 5.0661
x: 425 = 10.0062
x: 426 = 1.82529
x: 427 = 7.53535
x: 428 = 10.8585
x: 429 = 1.99111
x: 430 = 10.0046
x: 431 = 10.0062
x: 432 = 3.43941
x: 433 = 0.0198492
x: 434 = 5.78705
x: 435 = 2.53281
x: 436 = 2.53156
x: 437 = 5.65979
x: 438 = 0.021095
x: 439 = 3.43816
x: 440 = 5.78705
x: 441 = -2.49062
x: 442 = 2.53156
x: 443 = 5.65979
x: 444 = -3.39722
x: 445 = 0.0198492
x: 446 = 5.78705
x: 447 = -2.49062
x: 448 = -2.49186
x: 449 = 5.65979
x: 450 = 0.021095
x: 451 = -3.39846
x: 452 = 5.78705
x: 453 = 2.53281
x: 454 = -2.49186
x: 455 = 5.65979
x: 456 = 3.43941
x: 457 = 0.0198492
x: 458 = -5.74413
x: 459 = 2.53281
x: 460 = -2.49186
x: 461 = -5.61687
x: 462 = 0.021095
x: 463 = 3.43816
x: 464 = -5.74413
x: 465 = 2.53281
x: 466 = 2.53156
x: 467 = -5.61687
x: 468 = -3.39722
x: 469 = 0.0198492
x: 470 = -5.74413
x: 471 = -2.49062
x: 472 = 2.53156
x: 473 = -5.61687
x: 474 = 0.021095
x: 475 = -3.39846
x: 476 = -5.74413
x: 477 = -2.49062
x: 478 = -2.49186
x: 479 = -5.61687
x: 480 = 5.78669
x: 481 = 3.43816
x: 482 = 0.0214638
x: 483 = 5.65942
x: 484 = 2.53156
x: 485 = 2.53317
x: 486 = -3.39722
x: 487 = 5.78544
x: 488 = 0.0214638
x: 489 = -2.49062
x: 490 = 5.65818
x: 491 = 2.53317
x: 492 = -5.7445
x: 493 = -3.39846
x: 494 = 0.0214638
x: 495 = -5.61723
x: 496 = -2.49186
x: 497 = 2.53317
x: 498 = 3.43941
x: 499 = -5.74574
x: 500 = 0.0214638
x: 501 = 2.53281
x: 502 = -5.61848
x: 503 = 2.53317
x: 504 = 5.78669
x: 505 = -3.39846
x: 506 = 0.0214638
x: 507 = 5.65942
x: 508 = -2.49186
x: 509 = -2.49025
x: 510 = 3.43941
x: 511 = 5.78544
x: 512 = 0.0214638
x: 513 = 2.53281
x: 514 = 5.65818
x: 515 = -2.49025
x: 516 = -5.7445
x: 517 = 3.43816
x: 518 = 0.0214638
x: 519 = -5.61723
x: 520 = 2.53156
x: 521 = -2.49025
x: 522 = -3.39722
x: 523 = -5.74574
x: 524 = 0.0214638
x: 525 = -2.49062
x: 526 = -5.61848
x: 527 = -2.49025
x: 528 = 0.021095
x: 529 = 5.78544
x: 530 = 3.43978
x: 531 = 2.53281
x: 532 = 5.65818
x: 533 = 2.53317
x: 534 = 0.021095
x: 535 = -5.74574
x: 536 = -3.39685
x: 537 = 2.53281
x: 538 = -5.61848
x: 539 = -2.49025
x: 540 = 5.78669
x: 541 = 0.0198492
x: 542 = -3.39685
x: 543 = 5.65942
x: 544 = 2.53156
x: 545 = -2.49025
x: 546 = 0.021095
x: 547 = 5.78544
x: 548 = -3.39685
x: 549 = -2.49062
x: 550 = 5.65818
x: 551 = -2.49025
x: 552 = -5.7445
x: 553 = 0.0198492
x: 554 = -3.39685
x: 555 = -5.61723
x: 556 = -2.49186
x: 557 = -2.49025
x: 558 = 0.021095
x: 559 = -5.74574
x: 560 = 3.43978
x: 561 = -2.49062
x: 562 = -5.61848
x: 563 = 2.53317
x: 564 = 5.78669
x: 565 = 0.0198492
x: 566 = 3.43978
x: 567 = 5.65942
x: 568 = -2.49186
x: 569 = 2.53317
x: 570 = -5.7445
x: 571 = 0.0198492
x: 572 = 3.43978
x: 573 = -5.61723
x: 574 = 2.53156
x: 575 = 2.53317
x: 576 = 10.9549
x: 577 = 7.53535
x: 578 = 13.3026
x: 579 = 10.0483
x: 580 = 10.0471
x: 581 = 13.1753
x: 582 = 7.5366
x: 583 = 10.9537
x: 584 = 13.3026
x: 585 = 5.02488
x: 586 = 10.0471
x: 587 = 13.1753
x: 588 = 4.11828
x: 589 = 7.53535
x: 590 = 13.3026
x: 591 = 5.02488
x: 592 = 5.02364
x: 593 = 13.1753
x: 594 = 7.5366
x: 595 = 4.11704
x: 596 = 13.3026
x: 597 = 10.0483
x: 598 = 5.02364
x: 599 = 13.1753
x: 600 = 10.9549
x: 601 = 7.53535
x: 602 = 1.77137
x: 603 = 10.0483
x: 604 = 5.02364
x: 605 = 1.89863
x: 606 = 7.5366
x: 607 = 10.9537
x: 608 = 1.77137
x: 609 = 10.0483
x: 610 = 10.0471
x: 611 = 1.89863
x: 612 = 4.11828
x: 613 = 7.53535
x: 614 = 1.77137
x: 615 = 5.02488
x: 616 = 10.0471
x: 617 = 1.89863
x: 618 = 7.5366
x: 619 = 4.11704
x: 620 = 1.77137
x: 621 = 5.02488
x: 622 = 5.02364
x: 623 = 1.89863
x: 624 = 13.3022
x: 625 = 10.9537
x: 626 = 7.53696
x: 627 = 13.1749
x: 628 = 10.0471
x: 629 = 10.0487
x: 630 = 4.11828
x: 631 = 13.3009
x: 632 = 7.53696
x: 633 = 5.02488
x: 634 = 13.1737
x: 635 = 10.0487
x: 636 = 1.771
x: 637 = 4.11704
x: 638 = 7.53696
x: 639 = 1.89827
x: 640 = 5.02364
x: 641 = 10.0487
x: 642 = 10.9549
x: 643 = 1.76976
x: 644 = 7.53696
x: 645 = 10.0483
x: 646 = 1.89702
x: 647 = 10.0487
x: 648 = 13.3022
x: 649 = 4.11704
x: 650 = 7.53696
x: 651 = 13.1749
x: 652 = 5.02364
x: 653 = 5.02525
x: 654 = 10.9549
x: 655 = 13.3009
x: 656 = 7.53696
x: 657 = 10.0483
x: 658 = 13.1737
x: 659 = 5.02525
x: 660 = 1.771
x: 661 = 10.9537
x: 662 = 7.53696
x: 663 = 1.89827
x: 664 = 10.0471
x: 665 = 5.02525
x: 666 = 4.11828
x: 667 = 1.76976
x: 668 = 7.53696
x: 669 = 5.02488
x: 670 = 1.89702
x: 671 = 5.02525
x: 672 = 7.5366
x: 673 = 13.3009
x: 674 = 10.9553
x: 675 = 10.0483
x: 676 = 13.1737
x: 677 = 10.0487
x: 678 = 7.5366
x: 679 = 1.76976
x: 680 = 4.11865
x: 681 = 10.0483
x: 682 = 1.89702
x: 683 = 5.02525
x: 684 = 13.3022
x: 685 = 7.53535
x: 686 = 4.11865
x: 687 = 13.1749
x: 688 = 10.0471
x: 689 = 5.02525
x: 690 = 7.5366
x: 691 = 13.3009
x: 692 = 4.11865
x: 693 = 5.02488
x: 694 = 13.1737
x: 695 = 5.02525
x: 696 = 1.771
x: 697 = 7.53535
x: 698 = 4.11865
x: 699 = 1.89827
x: 700 = 5.02364
x: 701 = 5.02525
x: 702 = 7.5366
x: 703 = 1.76976
x: 704 = 10.9553
x: 705 = 5.02488
x: 706 = 1.89702
x: 707 = 10.0487
x: 708 = 13.3022
x: 709 = 7.53535
x: 710 = 10.9553
x: 711 = 13.1749
x: 712 = 5.02364
x: 713 = 10.0487
x: 714 = 1.771
x: 715 = 7.53535
x: 716 = 10.9553
x: 717 = 1.89827
x: 718 = 10.0471
x: 719 = 10.0487
x: 720 = -0.0173155




Gradient vector:
================
Gradient: 0 = 3.67337e-10
Gradient: 1 = 9.58485e-10
Gradient: 2 = -1.23015e-09
Gradient: 3 = -1.34867e-09
Gradient: 4 = 3.94477e-10
Gradient: 5 = -3.47995e-10
Gradient: 6 = 3.20597e-11
Gradient: 7 = 4.85045e-10
Gradient: 8 = -4.77485e-11
Gradient: 9 = 4.11194e-10
Gradient: 10 = 8.13457e-10
Gradient: 11 = 1.44926e-10
Gradient: 12 = 9.75318e-11
Gradient: 13 = -5.42968e-10
Gradient: 14 = 1.16364e-09
Gradient: 15 = 1.0192e-10
Gradient: 16 = 6.61998e-10
Gradient: 17 = -6.44263e-10
Gradient: 18 = -2.49213e-09
Gradient: 19 = -5.90241e-10
Gradient: 20 = -6.44035e-10
Gradient: 21 = 1.16552e-09
Gradient: 22 = 4.51695e-10
Gradient: 23 = 2.89447e-10
Gradient: 24 = 1.97701e-10
Gradient: 25 = 5.83782e-11
Gradient: 26 = 9.31095e-11
Gradient: 27 = 1.20461e-09
Gradient: 28 = -1.8558e-09
Gradient: 29 = 2.78256e-11
Gradient: 30 = 4.57223e-10
Gradient: 31 = 1.22145e-09
Gradient: 32 = -4.93401e-11
Gradient: 33 = 7.58803e-10
Gradient: 34 = 7.74094e-10
Gradient: 35 = 3.51179e-10
Gradient: 36 = 6.54949e-10
Gradient: 37 = -7.0432e-10
Gradient: 38 = -2.15563e-09
Gradient: 39 = -1.02636e-09
Gradient: 40 = 1.75269e-10
Gradient: 41 = -6.70866e-10
Gradient: 42 = -7.95808e-12
Gradient: 43 = -1.7053e-11
Gradient: 44 = 2.9786e-11
Gradient: 45 = 7.29381e-10
Gradient: 46 = 3.6836e-10
Gradient: 47 = -1.87041e-09
Gradient: 48 = 2.11439e-10
Gradient: 49 = -7.41579e-10
Gradient: 50 = 5.68434e-13
Gradient: 51 = 4.64695e-10
Gradient: 52 = -4.58556e-10
Gradient: 53 = -6.6234e-10
Gradient: 54 = -1.56139e-09
Gradient: 55 = 1.14821e-09
Gradient: 56 = -2.94218e-09
Gradient: 57 = 1.49419e-09
Gradient: 58 = -2.84099e-10
Gradient: 59 = 3.07466e-10
Gradient: 60 = -1.30058e-10
Gradient: 61 = 2.22826e-10
Gradient: 62 = -4.15412e-10
Gradient: 63 = 9.05271e-10
Gradient: 64 = -1.54639e-09
Gradient: 65 = -2.78932e-09
Gradient: 66 = 9.23126e-12
Gradient: 67 = 5.89353e-10
Gradient: 68 = 8.07745e-10
Gradient: 69 = -3.33557e-10
Gradient: 70 = -5.35294e-10
Gradient: 71 = 9.627e-10
Gradient: 72 = -1.65375e-09
Gradient: 73 = 6.97203e-10
Gradient: 74 = 8.49583e-10
Gradient: 75 = -6.12431e-10
Gradient: 76 = -1.48634e-09
Gradient: 77 = 6.21769e-10
Gradient: 78 = -6.07656e-10
Gradient: 79 = -3.01952e-10
Gradient: 80 = 2.11287e-10
Gradient: 81 = -5.79203e-10
Gradient: 82 = 3.93705e-10
Gradient: 83 = 1.16537e-09
Gradient: 84 = 6.90761e-10
Gradient: 85 = 8.34461e-10
Gradient: 86 = 1.96687e-10
Gradient: 87 = -4.97721e-10
Gradient: 88 = 1.66892e-10
Gradient: 89 = 1.084e-10
Gradient: 90 = -2.15608e-09
Gradient: 91 = -2.49833e-09
Gradient: 92 = 3.92619e-10
Gradient: 93 = 2.63128e-10
Gradient: 94 = 5.86056e-10
Gradient: 95 = 1.85888e-10
Gradient: 96 = -1.09753e-09
Gradient: 97 = 2.26805e-10
Gradient: 98 = 9.51445e-10
Gradient: 99 = 4.48726e-10
Gradient: 100 = -8.61283e-10
Gradient: 101 = 1.55546e-09
Gradient: 102 = -1.50487e-09
Gradient: 103 = -1.29046e-09
Gradient: 104 = -1.51839e-10
Gradient: 105 = 2.14584e-10
Gradient: 106 = -1.02932e-09
Gradient: 107 = 3.38275e-10
Gradient: 108 = 5.09612e-11
Gradient: 109 = -2.52588e-09
Gradient: 110 = -9.25447e-10
Gradient: 111 = -9.004e-11
Gradient: 112 = 1.60901e-09
Gradient: 113 = 4.93064e-10
Gradient: 114 = 1.76897e-10
Gradient: 115 = 5.18355e-10
Gradient: 116 = -2.02647e-10
Gradient: 117 = 6.23432e-10
Gradient: 118 = -1.30478e-09
Gradient: 119 = -1.08843e-09
Gradient: 120 = -3.39924e-10
Gradient: 121 = -1.73202e-10
Gradient: 122 = -2.80608e-10
Gradient: 123 = 3.05192e-10
Gradient: 124 = -1.00272e-10
Gradient: 125 = -4.81464e-11
Gradient: 126 = -1.09266e-09
Gradient: 127 = 1.1448e-09
Gradient: 128 = -2.36701e-09
Gradient: 129 = 5.49505e-10
Gradient: 130 = -5.21709e-10
Gradient: 131 = 3.51432e-10
Gradient: 132 = -5.46834e-11
Gradient: 133 = 3.50269e-10
Gradient: 134 = -2.07194e-10
Gradient: 135 = -3.50456e-09
Gradient: 136 = -1.84186e-09
Gradient: 137 = -7.00899e-10
Gradient: 138 = 9.54742e-10
Gradient: 139 = -5.19549e-10
Gradient: 140 = 2.61688e-11
Gradient: 141 = -2.06569e-10
Gradient: 142 = 3.10592e-10
Gradient: 143 = -7.81426e-10
Gradient: 144 = 1.11894e-09
Gradient: 145 = -9.4443e-10
Gradient: 146 = 1.93906e-10
Gradient: 147 = -8.02542e-11
Gradient: 148 = 2.75463e-10
Gradient: 149 = -8.49013e-10
Gradient: 150 = -1.89118e-10
Gradient: 151 = -2.53408e-10
Gradient: 152 = 1.30711e-09
Gradient: 153 = 1.20669e-09
Gradient: 154 = -1.75051e-09
Gradient: 155 = -2.42939e-09
Gradient: 156 = 9.46531e-11
Gradient: 157 = 5.37852e-10
Gradient: 158 = 1.48611e-09
Gradient: 159 = -2.36639e-10
Gradient: 160 = -6.59611e-10
Gradient: 161 = -5.9913e-10
Gradient: 162 = -1.95587e-10
Gradient: 163 = 1.92249e-09
Gradient: 164 = -1.40972e-09
Gradient: 165 = -2.96382e-10
Gradient: 166 = 3.24737e-10
Gradient: 167 = 1.05842e-09
Gradient: 168 = 3.2469e-10
Gradient: 169 = -8.18545e-12
Gradient: 170 = 2.67164e-11
Gradient: 171 = -3.89019e-09
Gradient: 172 = 3.5661e-10
Gradient: 173 = -3.97769e-09
Gradient: 174 = 2.63143e-10
Gradient: 175 = 5.46152e-10
Gradient: 176 = 1.13289e-09
Gradient: 177 = -4.40082e-10
Gradient: 178 = 3.51292e-11
Gradient: 179 = 3.7835e-10
Gradient: 180 = -1.45799e-09
Gradient: 181 = -2.30707e-09
Gradient: 182 = -1.19211e-09
Gradient: 183 = -6.16467e-10
Gradient: 184 = 9.89386e-11
Gradient: 185 = 1.06456e-09
Gradient: 186 = 2.07604e-09
Gradient: 187 = -7.18273e-10
Gradient: 188 = 3.9887e-10
Gradient: 189 = -1.71237e-09
Gradient: 190 = -1.40939e-09
Gradient: 191 = 1.92046e-09
Gradient: 192 = -2.05824e-11
Gradient: 193 = -3.06613e-10
Gradient: 194 = -7.0213e-10
Gradient: 195 = 8.40714e-11
Gradient: 196 = -2.27146e-10
Gradient: 197 = 2.78874e-10
Gradient: 198 = -2.62398e-10
Gradient: 199 = -2.73818e-09
Gradient: 200 = 8.12133e-10
Gradient: 201 = 1.44723e-10
Gradient: 202 = -9.84963e-11
Gradient: 203 = -1.2119e-09
Gradient: 204 = 5.01359e-10
Gradient: 205 = -4.88967e-10
Gradient: 206 = 3.9438e-10
Gradient: 207 = -1.11155e-09
Gradient: 208 = 8.5143e-10
Gradient: 209 = -8.29919e-10
Gradient: 210 = 4.07169e-10
Gradient: 211 = 4.21485e-11
Gradient: 212 = -5.45015e-10
Gradient: 213 = -1.27875e-09
Gradient: 214 = 4.35591e-10
Gradient: 215 = 2.6796e-10
Gradient: 216 = -1.99584e-09
Gradient: 217 = -2.79561e-09
Gradient: 218 = 9.7917e-10
Gradient: 219 = 1.01807e-10
Gradient: 220 = -8.16436e-10
Gradient: 221 = -8.40461e-10
Gradient: 222 = 1.49971e-09
Gradient: 223 = 1.00715e-09
Gradient: 224 = -2.98852e-09
Gradient: 225 = -1.57479e-09
Gradient: 226 = 9.16272e-10
Gradient: 227 = -2.33519e-09
Gradient: 228 = -9.70103e-10
Gradient: 229 = 1.6075e-09
Gradient: 230 = -7.18248e-10
Gradient: 231 = 4.6666e-10
Gradient: 232 = -2.85112e-09
Gradient: 233 = 7.8635e-10
Gradient: 234 = 2.5982e-10
Gradient: 235 = -2.44992e-09
Gradient: 236 = -5.58523e-10
Gradient: 237 = 1.22904e-09
Gradient: 238 = 4.4376e-10
Gradient: 239 = -2.0592e-10
Gradient: 240 = 3.26718e-11
Gradient: 241 = -2.00627e-09
Gradient: 242 = -2.77371e-10
Gradient: 243 = 2.13575e-09
Gradient: 244 = -2.46834e-09
Gradient: 245 = -1.35027e-09
Gradient: 246 = -6.97637e-10
Gradient: 247 = 1.63837e-09
Gradient: 248 = -1.55558e-09
Gradient: 249 = -9.06299e-10
Gradient: 250 = 5.34541e-10
Gradient: 251 = -1.71938e-09
Gradient: 252 = -1.02667e-09
Gradient: 253 = 1.16707e-09
Gradient: 254 = 1.44687e-09
Gradient: 255 = -3.65065e-09
Gradient: 256 = -1.75407e-09
Gradient: 257 = 1.30922e-09
Gradient: 258 = -7.37907e-10
Gradient: 259 = -3.94541e-09
Gradient: 260 = 2.14334e-09
Gradient: 261 = 7.613e-10
Gradient: 262 = -3.93525e-10
Gradient: 263 = 9.63588e-10
Gradient: 264 = -3.29326e-09
Gradient: 265 = -3.39073e-09
Gradient: 266 = -3.58565e-09
Gradient: 267 = -5.19389e-10
Gradient: 268 = -1.02612e-09
Gradient: 269 = 1.4953e-09
Gradient: 270 = -3.59997e-09
Gradient: 271 = -1.85382e-09
Gradient: 272 = 5.35967e-10
Gradient: 273 = 1.58659e-09
Gradient: 274 = -2.84015e-09
Gradient: 275 = 6.33208e-10
Gradient: 276 = -1.52461e-09
Gradient: 277 = 1.11341e-09
Gradient: 278 = -1.05441e-10
Gradient: 279 = 1.99533e-09
Gradient: 280 = 3.97202e-10
Gradient: 281 = -1.13265e-09
Gradient: 282 = -1.62079e-09
Gradient: 283 = 2.19442e-09
Gradient: 284 = -1.71713e-09
Gradient: 285 = -1.07597e-10
Gradient: 286 = -1.09837e-09
Gradient: 287 = -1.9852e-10
Gradient: 288 = 8.21274e-10
Gradient: 289 = -3.3601e-10
Gradient: 290 = 1.38238e-09
Gradient: 291 = 3.77497e-10
Gradient: 292 = 3.08205e-10
Gradient: 293 = 3.17573e-09
Gradient: 294 = 7.37044e-10
Gradient: 295 = -9.91236e-10
Gradient: 296 = 1.57092e-09
Gradient: 297 = 3.75735e-11
Gradient: 298 = -1.22844e-09
Gradient: 299 = 6.24937e-10
Gradient: 300 = 1.32638e-09
Gradient: 301 = -2.68326e-10
Gradient: 302 = 8.45262e-11
Gradient: 303 = -1.9262e-09
Gradient: 304 = -1.31308e-11
Gradient: 305 = 2.40811e-09
Gradient: 306 = -3.49588e-11
Gradient: 307 = 1.11754e-09
Gradient: 308 = -1.03768e-09
Gradient: 309 = -3.37195e-10
Gradient: 310 = -1.62208e-09
Gradient: 311 = -1.41085e-09
Gradient: 312 = -1.87435e-09
Gradient: 313 = -4.18932e-10
Gradient: 314 = 1.32331e-10
Gradient: 315 = -7.73412e-10
Gradient: 316 = -1.1824e-09
Gradient: 317 = 1.79512e-10
Gradient: 318 = 2.27249e-10
Gradient: 319 = -2.83455e-09
Gradient: 320 = -6.11067e-11
Gradient: 321 = 1.26312e-09
Gradient: 322 = 1.93836e-11
Gradient: 323 = -2.93085e-10
Gradient: 324 = 1.75726e-09
Gradient: 325 = -9.42269e-10
Gradient: 326 = -2.51248e-11
Gradient: 327 = -8.55493e-11
Gradient: 328 = -9.49285e-10
Gradient: 329 = 4.14047e-10
Gradient: 330 = 6.74444e-10
Gradient: 331 = 5.84805e-10
Gradient: 332 = -8.28777e-11
Gradient: 333 = 1.46827e-10
Gradient: 334 = 1.32559e-10
Gradient: 335 = 3.61979e-10
Gradient: 336 = 2.10088e-09
Gradient: 337 = -3.57761e-09
Gradient: 338 = 4.37996e-10
Gradient: 339 = -1.54273e-10
Gradient: 340 = -1.21395e-09
Gradient: 341 = 2.29818e-10
Gradient: 342 = 1.57308e-09
Gradient: 343 = -8.04562e-10
Gradient: 344 = -3.96027e-10
Gradient: 345 = -8.15874e-10
Gradient: 346 = 1.42222e-09
Gradient: 347 = -1.87021e-09
Gradient: 348 = 2.15095e-10
Gradient: 349 = 9.0381e-10
Gradient: 350 = -6.52921e-10
Gradient: 351 = 2.02363e-10
Gradient: 352 = 1.18018e-09
Gradient: 353 = 9.04436e-10
Gradient: 354 = 2.37492e-10
Gradient: 355 = 6.43468e-11
Gradient: 356 = -1.00567e-09
Gradient: 357 = -8.37133e-10
Gradient: 358 = 6.35509e-11
Gradient: 359 = 1.07934e-09
Gradient: 360 = 5.11591e-10
Gradient: 361 = 1.32184e-09
Gradient: 362 = 3.34025e-10
Gradient: 363 = 7.07246e-10
Gradient: 364 = 2.61934e-10
Gradient: 365 = -5.32225e-10
Gradient: 366 = -2.46359e-10
Gradient: 367 = 7.11395e-10
Gradient: 368 = -2.60459e-10
Gradient: 369 = -8.94204e-10
Gradient: 370 = -1.42154e-09
Gradient: 371 = 3.42482e-10
Gradient: 372 = -6.14477e-11
Gradient: 373 = -1.19599e-09
Gradient: 374 = 6.26285e-10
Gradient: 375 = -2.72166e-10
Gradient: 376 = 4.12797e-10
Gradient: 377 = -4.25757e-11
Gradient: 378 = -3.43334e-11
Gradient: 379 = -1.45747e-10
Gradient: 380 = -2.38727e-10
Gradient: 381 = -7.48514e-10
Gradient: 382 = 6.13909e-12
Gradient: 383 = 6.63022e-10
Gradient: 384 = 8.52443e-11
Gradient: 385 = 5.56497e-10
Gradient: 386 = -1.41574e-09
Gradient: 387 = 2.14663e-09
Gradient: 388 = -2.5567e-09
Gradient: 389 = 6.97923e-10
Gradient: 390 = 1.53442e-09
Gradient: 391 = 1.60867e-10
Gradient: 392 = 1.91585e-09
Gradient: 393 = 1.34077e-09
Gradient: 394 = -2.53635e-10
Gradient: 395 = -1.80364e-10
Gradient: 396 = -1.07968e-09
Gradient: 397 = -5.74133e-10
Gradient: 398 = 1.91403e-09
Gradient: 399 = -9.79298e-10
Gradient: 400 = -2.69642e-09
Gradient: 401 = 1.1363e-10
Gradient: 402 = 5.70654e-10
Gradient: 403 = -2.10053e-09
Gradient: 404 = 6.41649e-10
Gradient: 405 = -3.16504e-10
Gradient: 406 = -9.55083e-10
Gradient: 407 = 1.05092e-09
Gradient: 408 = 4.10239e-10
Gradient: 409 = -7.29709e-10
Gradient: 410 = 1.42563e-09
Gradient: 411 = 2.28511e-11
Gradient: 412 = 5.017e-10
Gradient: 413 = -3.41458e-10
Gradient: 414 = -1.64119e-09
Gradient: 415 = -2.75804e-10
Gradient: 416 = 1.13687e-12
Gradient: 417 = 2.29875e-10
Gradient: 418 = -4.93401e-11
Gradient: 419 = 5.95378e-10
Gradient: 420 = 4.61057e-10
Gradient: 421 = 1.6296e-10
Gradient: 422 = 1.38925e-10
Gradient: 423 = 1.35219e-09
Gradient: 424 = -2.38742e-10
Gradient: 425 = -1.51169e-09
Gradient: 426 = 6.89511e-11
Gradient: 427 = 1.71846e-10
Gradient: 428 = -1.2119e-10
Gradient: 429 = -2.72848e-12
Gradient: 430 = 6.4972e-10
Gradient: 431 = 1.88248e-09
Gradient: 432 = 6.18456e-10
Gradient: 433 = -3.04336e-10
Gradient: 434 = 8.06892e-10
Gradient: 435 = -5.86738e-10
Gradient: 436 = 1.05501e-10
Gradient: 437 = 7.52721e-10
Gradient: 438 = -1.15364e-09
Gradient: 439 = -5.02723e-10
Gradient: 440 = -7.18956e-10
Gradient: 441 = 3.03601e-10
Gradient: 442 = -8.52822e-10
Gradient: 443 = 8.08882e-10
Gradient: 444 = 2.28852e-10
Gradient: 445 = -8.86548e-10
Gradient: 446 = -7.93477e-10
Gradient: 447 = -4.53099e-10
Gradient: 448 = -2.91834e-10
Gradient: 449 = 5.09431e-10
Gradient: 450 = -7.73379e-10
Gradient: 451 = 1.35969e-10
Gradient: 452 = 3.19574e-10
Gradient: 453 = -1.18854e-09
Gradient: 454 = -2.7751e-10
Gradient: 455 = 1.66096e-10
Gradient: 456 = 7.86713e-11
Gradient: 457 = -3.29732e-10
Gradient: 458 = 9.99819e-10
Gradient: 459 = -7.72673e-10
Gradient: 460 = -3.57204e-10
Gradient: 461 = 1.51886e-10
Gradient: 462 = -5.91525e-11
Gradient: 463 = -1.24567e-09
Gradient: 464 = 4.97664e-10
Gradient: 465 = -3.32307e-10
Gradient: 466 = 8.22524e-11
Gradient: 467 = 8.72092e-10
Gradient: 468 = -5.4149e-10
Gradient: 469 = 1.37288e-10
Gradient: 470 = 7.10543e-12
Gradient: 471 = -2.95074e-10
Gradient: 472 = -6.77915e-10
Gradient: 473 = 1.14119e-09
Gradient: 474 = -5.61188e-10
Gradient: 475 = 1.3149e-09
Gradient: 476 = -4.10694e-10
Gradient: 477 = 1.2941e-09
Gradient: 478 = 7.5346e-10
Gradient: 479 = -1.329e-09
Gradient: 480 = 1.66312e-09
Gradient: 481 = 4.36557e-11
Gradient: 482 = 1.94189e-10
Gradient: 483 = 1.46485e-09
Gradient: 484 = 2.6688e-10
Gradient: 485 = -1.90994e-10
Gradient: 486 = 2.18847e-10
Gradient: 487 = -1.2447e-09
Gradient: 488 = -6.12587e-10
Gradient: 489 = 1.03171e-09
Gradient: 490 = -4.85443e-11
Gradient: 491 = -5.78268e-10
Gradient: 492 = 7.58291e-10
Gradient: 493 = 1.10788e-09
Gradient: 494 = 8.05247e-10
Gradient: 495 = 1.697e-09
Gradient: 496 = 2.359e-10
Gradient: 497 = -1.39249e-09
Gradient: 498 = -1.59048e-10
Gradient: 499 = 1.94518e-09
Gradient: 500 = -7.68575e-10
Gradient: 501 = -3.65219e-10
Gradient: 502 = 1.65005e-09
Gradient: 503 = -5.97481e-10
Gradient: 504 = 4.98858e-10
Gradient: 505 = 1.10276e-10
Gradient: 506 = -8.52378e-10
Gradient: 507 = -2.64208e-10
Gradient: 508 = 1.86844e-10
Gradient: 509 = 4.04611e-10
Gradient: 510 = -1.47975e-09
Gradient: 511 = 6.76494e-10
Gradient: 512 = -2.15586e-10
Gradient: 513 = -9.05459e-10
Gradient: 514 = 8.40714e-10
Gradient: 515 = -5.75255e-11
Gradient: 516 = -4.57476e-10
Gradient: 517 = 3.73234e-10
Gradient: 518 = -4.37297e-10
Gradient: 519 = 5.69116e-10
Gradient: 520 = -1.22168e-09
Gradient: 521 = 2.34195e-11
Gradient: 522 = 1.15722e-09
Gradient: 523 = 1.68308e-09
Gradient: 524 = -1.86845e-10
Gradient: 525 = 3.60899e-10
Gradient: 526 = -4.77485e-10
Gradient: 527 = 1.55791e-09
Gradient: 528 = 2.27131e-10
Gradient: 529 = -7.55506e-10
Gradient: 530 = 2.5409e-10
Gradient: 531 = -4.12854e-10
Gradient: 532 = 7.00538e-10
Gradient: 533 = -1.36657e-09
Gradient: 534 = 4.42059e-10
Gradient: 535 = -3.9654e-10
Gradient: 536 = -8.34234e-10
Gradient: 537 = -1.13965e-09
Gradient: 538 = 1.49601e-09
Gradient: 539 = 3.39128e-10
Gradient: 540 = 2.08502e-10
Gradient: 541 = -9.83401e-10
Gradient: 542 = -2.2635e-10
Gradient: 543 = -9.61791e-11
Gradient: 544 = -8.90566e-10
Gradient: 545 = -6.0669e-10
Gradient: 546 = -6.71891e-10
Gradient: 547 = -1.00152e-09
Gradient: 548 = 5.20686e-10
Gradient: 549 = 2.02249e-10
Gradient: 550 = 3.07182e-10
Gradient: 551 = 5.60931e-10
Gradient: 552 = 1.8656e-09
Gradient: 553 = -8.61904e-10
Gradient: 554 = -1.78488e-10
Gradient: 555 = -3.20324e-09
Gradient: 556 = 2.90584e-10
Gradient: 557 = 5.06873e-10
Gradient: 558 = 1.76828e-10
Gradient: 559 = 8.29061e-10
Gradient: 560 = -1.36265e-09
Gradient: 561 = 4.55884e-11
Gradient: 562 = 6.17888e-10
Gradient: 563 = -1.28694e-09
Gradient: 564 = 2.54545e-10
Gradient: 565 = -5.16666e-10
Gradient: 566 = -1.79625e-11
Gradient: 567 = 2.71825e-10
Gradient: 568 = 3.87672e-10
[...]
	Block[ 2]            0.00000 [K]
	Block[ 3]            0.00000 [K]
	Block[ 4]            0.00000 [K]
	------------------------------------------------------------------------------
	Average              0.00000 [K] +/-            0.00000 [K]

Average Adsorbate Bend-Bend cross term energy:
==============================================
	Block[ 0]            0.00000 [K]
	Block[ 1]            0.00000 [K]
	Block[ 2]            0.00000 [K]
	Block[ 3]            0.00000 [K]
	Block[ 4]            0.00000 [K]
	------------------------------------------------------------------------------
	Average              0.00000 [K] +/-            0.00000 [K]

Average Adsorbate Bond-Bend cross term energy:
=================================================
	Block[ 0]            0.00000 [K]
	Block[ 1]            0.00000 [K]
	Block[ 2]            0.00000 [K]
	Block[ 3]            0.00000 [K]
	Block[ 4]            0.00000 [K]
	------------------------------------------------------------------------------
	Average              0.00000 [K] +/-            0.00000 [K]

Average Adsorbate Bond-Torsion cross term energy:
=================================================
	Block[ 0]            0.00000 [K]
	Block[ 1]            0.00000 [K]
	Block[ 2]            0.00000 [K]
	Block[ 3]            0.00000 [K]
	Block[ 4]            0.00000 [K]
	------------------------------------------------------------------------------
	Average              0.00000 [K] +/-            0.00000 [K]

Average Adsorbate Bend-Torsion cross term energy:
=================================================
	Block[ 0]            0.00000 [K]
	Block[ 1]            0.00000 [K]
	Block[ 2]            0.00000 [K]
	Block[ 3]            0.00000 [K]
	Block[ 4]            0.00000 [K]
	------------------------------------------------------------------------------
	Average              0.00000 [K] +/-            0.00000 [K]

Average Adsorbate Intra Van der Waals energy:
=============================================
	Block[ 0]            0.00000 [K]
	Block[ 1]            0.00000 [K]
	Block[ 2]            0.00000 [K]
	Block[ 3]            0.00000 [K]
	Block[ 4]            0.00000 [K]
	------------------------------------------------------------------------------
	Average              0.00000 [K] +/-            0.00000 [K]

Average Adsorbate Intra charge-charge Coulomb energy:
=======================================
	Block[ 0]            0.00000 [K]
	Block[ 1]            0.00000 [K]
	Block[ 2]            0.00000 [K]
	Block[ 3]            0.00000 [K]
	Block[ 4]            0.00000 [K]
	------------------------------------------------------------------------------
	Average              0.00000 [K] +/-            0.00000 [K]

Average Adsorbate Intra charge-bonddipole Coulomb energy:
=======================================
	Block[ 0]            0.00000 [K]
	Block[ 1]            0.00000 [K]
	Block[ 2]            0.00000 [K]
	Block[ 3]            0.00000 [K]
	Block[ 4]            0.00000 [K]
	------------------------------------------------------------------------------
	Average              0.00000 [K] +/-            0.00000 [K]

Average Adsorbate Intra bonddipole-bonddipole Coulomb energy:
=======================================
	Block[ 0]            0.00000 [K]
	Block[ 1]            0.00000 [K]
	Block[ 2]            0.00000 [K]
	Block[ 3]            0.00000 [K]
	Block[ 4]            0.00000 [K]
	------------------------------------------------------------------------------
	Average              0.00000 [K] +/-            0.00000 [K]

Average Cation Bond stretch energy:
=================================
	Block[ 0]            0.00000 [K]
	Block[ 1]            0.00000 [K]
	Block[ 2]            0.00000 [K]
	Block[ 3]            0.00000 [K]
	Block[ 4]            0.00000 [K]
	------------------------------------------------------------------------------
	Average              0.00000 [K] +/-            0.00000 [K]

Average Cation UreyBradley stretch energy:
==========================================
	Block[ 0]            0.00000 [K]
	Block[ 1]            0.00000 [K]
	Block[ 2]            0.00000 [K]
	Block[ 3]            0.00000 [K]
	Block[ 4]            0.00000 [K]
	------------------------------------------------------------------------------
	Average              0.00000 [K] +/-            0.00000 [K]

Average Cation Bend angle energy:
=================================
	Block[ 0]            0.00000 [K]
	Block[ 1]            0.00000 [K]
	Block[ 2]            0.00000 [K]
	Block[ 3]            0.00000 [K]
	Block[ 4]            0.00000 [K]
	------------------------------------------------------------------------------
	Average              0.00000 [K] +/-            0.00000 [K]

Average Cation Bend angle inversion energy:
===========================================
	Block[ 0]            0.00000 [K]
	Block[ 1]            0.00000 [K]
	Block[ 2]            0.00000 [K]
	Block[ 3]            0.00000 [K]
	Block[ 4]            0.00000 [K]
	------------------------------------------------------------------------------
	Average              0.00000 [K] +/-            0.00000 [K]

Average Cation Torsion energy:
==============================
	Block[ 0]            0.00000 [K]
	Block[ 1]            0.00000 [K]
	Block[ 2]            0.00000 [K]
	Block[ 3]            0.00000 [K]
	Block[ 4]            0.00000 [K]
	------------------------------------------------------------------------------
	Average              0.00000 [K] +/-            0.00000 [K]

Average Cation Improper Torsion energy:
=======================================
	Block[ 0]            0.00000 [K]
	Block[ 1]            0.00000 [K]
	Block[ 2]            0.00000 [K]
	Block[ 3]            0.00000 [K]
	Block[ 4]            0.00000 [K]
	------------------------------------------------------------------------------
	Average              0.00000 [K] +/-            0.00000 [K]

Average Cation Bond-Bond cross term energy:
=================================================
	Block[ 0]            0.00000 [K]
	Block[ 1]            0.00000 [K]
	Block[ 2]            0.00000 [K]
	Block[ 3]            0.00000 [K]
	Block[ 4]            0.00000 [K]
	------------------------------------------------------------------------------
	Average              0.00000 [K] +/-            0.00000 [K]

Average Cation Bend-Bend cross term energy:
===========================================
	Block[ 0]            0.00000 [K]
	Block[ 1]            0.00000 [K]
	Block[ 2]            0.00000 [K]
	Block[ 3]            0.00000 [K]
	Block[ 4]            0.00000 [K]
	------------------------------------------------------------------------------
	Average              0.00000 [K] +/-            0.00000 [K]

Average Cation Bond-Bend cross term energy:
==============================================
	Block[ 0]            0.00000 [K]
	Block[ 1]            0.00000 [K]
	Block[ 2]            0.00000 [K]
	Block[ 3]            0.00000 [K]
	Block[ 4]            0.00000 [K]
	------------------------------------------------------------------------------
	Average              0.00000 [K] +/-            0.00000 [K]

Average Cation Bond-Torsion cross term energy:
==============================================
	Block[ 0]            0.00000 [K]
	Block[ 1]            0.00000 [K]
	Block[ 2]            0.00000 [K]
	Block[ 3]            0.00000 [K]
	Block[ 4]            0.00000 [K]
	------------------------------------------------------------------------------
	Average              0.00000 [K] +/-            0.00000 [K]

Average Cation Bend-Torsion cross term energy:
==============================================
	Block[ 0]            0.00000 [K]
	Block[ 1]            0.00000 [K]
	Block[ 2]            0.00000 [K]
	Block[ 3]            0.00000 [K]
	Block[ 4]            0.00000 [K]
	------------------------------------------------------------------------------
	Average              0.00000 [K] +/-            0.00000 [K]

Average Cation Intra Van der Waals energy:
==========================================
	Block[ 0]            0.00000 [K]
	Block[ 1]            0.00000 [K]
	Block[ 2]            0.00000 [K]
	Block[ 3]            0.00000 [K]
	Block[ 4]            0.00000 [K]
	------------------------------------------------------------------------------
	Average              0.00000 [K] +/-            0.00000 [K]

Average Cation Intra charge-charge Coulomb energy:
====================================
	Block[ 0]            0.00000 [K]
	Block[ 1]            0.00000 [K]
	Block[ 2]            0.00000 [K]
	Block[ 3]            0.00000 [K]
	Block[ 4]            0.00000 [K]
	------------------------------------------------------------------------------
	Average              0.00000 [K] +/-            0.00000 [K]

Average Cation Intra charge-bonddipole Coulomb energy:
====================================
	Block[ 0]            0.00000 [K]
	Block[ 1]            0.00000 [K]
	Block[ 2]            0.00000 [K]
	Block[ 3]            0.00000 [K]
	Block[ 4]            0.00000 [K]
	------------------------------------------------------------------------------
	Average              0.00000 [K] +/-            0.00000 [K]

Average Cation Intra bonddipole-bonddipole Coulomb energy:
====================================
	Block[ 0]            0.00000 [K]
	Block[ 1]            0.00000 [K]
	Block[ 2]            0.00000 [K]
	Block[ 3]            0.00000 [K]
	Block[ 4]            0.00000 [K]
	------------------------------------------------------------------------------
	Average              0.00000 [K] +/-            0.00000 [K]

Average Host-Host energy:
=========================
	Block[ 0] 0.00000            Van der Waals: 0.00000            Coulomb: 0.00000            [K]
	Block[ 1] 0.00000            Van der Waals: 0.00000            Coulomb: 0.00000            [K]
	Block[ 2] 0.00000            Van der Waals: 0.00000            Coulomb: 0.00000            [K]
	Block[ 3] 0.00000            Van der Waals: 0.00000            Coulomb: 0.00000            [K]
	Block[ 4] 0.00000            Van der Waals: 0.00000            Coulomb: 0.00000            [K]
	------------------------------------------------------------------------------
	Average   0.00000            Van der Waals: 0.000000           Coulomb: 0.00000            [K]
	      +/- 0.00000                       +/- 0.000000                +/- 0.00000            [K]

Average Adsorbate-Adsorbate energy:
===================================
	Block[ 0] 0.00000            Van der Waals: 0.00000            Coulomb: 0.00000            [K]
	Block[ 1] 0.00000            Van der Waals: 0.00000            Coulomb: 0.00000            [K]
	Block[ 2] 0.00000            Van der Waals: 0.00000            Coulomb: 0.00000            [K]
	Block[ 3] 0.00000            Van der Waals: 0.00000            Coulomb: 0.00000            [K]
	Block[ 4] 0.00000            Van der Waals: 0.00000            Coulomb: 0.00000            [K]
	------------------------------------------------------------------------------
	Average   0.00000            Van der Waals: 0.000000           Coulomb: 0.00000            [K]
	      +/- 0.00000                       +/- 0.000000                +/- 0.00000            [K]

Average Cation-Cation energy:
=============================
	Block[ 0] 0.00000            Van der Waals: 0.00000            Coulomb: 0.00000            [K]
	Block[ 1] 0.00000            Van der Waals: 0.00000            Coulomb: 0.00000            [K]
	Block[ 2] 0.00000            Van der Waals: 0.00000            Coulomb: 0.00000            [K]
	Block[ 3] 0.00000            Van der Waals: 0.00000            Coulomb: 0.00000            [K]
	Block[ 4] 0.00000            Van der Waals: 0.00000            Coulomb: 0.00000            [K]
	------------------------------------------------------------------------------
	Average   0.00000            Van der Waals: 0.000000           Coulomb: 0.00000            [K]
	      +/- 0.00000                       +/- 0.000000                +/- 0.00000            [K]

Average Host-Adsorbate energy:
==============================
	Block[ 0] 0.00000            Van der Waals: 0.00000            Coulomb: 0.00000            [K]
	Block[ 1] 0.00000            Van der Waals: 0.00000            Coulomb: 0.00000            [K]
	Block[ 2] 0.00000            Van der Waals: 0.00000            Coulomb: 0.00000            [K]
	Block[ 3] 0.00000            Van der Waals: 0.00000            Coulomb: 0.00000            [K]
	Block[ 4] 0.00000            Van der Waals: 0.00000            Coulomb: 0.00000            [K]
	------------------------------------------------------------------------------
	Average   0.00000            Van der Waals: 0.000000           Coulomb: 0.00000            [K]
	      +/- 0.00000                       +/- 0.000000                +/- 0.00000            [K]

Average Host-Cation energy:
===========================
	Block[ 0] 0.00000            Van der Waals: 0.00000            Coulomb: 0.00000            [K]
	Block[ 1] 0.00000            Van der Waals: 0.00000            Coulomb: 0.00000            [K]
	Block[ 2] 0.00000            Van der Waals: 0.00000            Coulomb: 0.00000            [K]
	Block[ 3] 0.00000            Van der Waals: 0.00000            Coulomb: 0.00000            [K]
	Block[ 4] 0.00000            Van der Waals: 0.00000            Coulomb: 0.00000            [K]
	------------------------------------------------------------------------------
	Average   0.00000            Van der Waals: 0.000000           Coulomb: 0.00000            [K]
	      +/- 0.00000                       +/- 0.000000                +/- 0.00000            [K]

Average Adsorbate-Cation energy:
================================
	Block[ 0] 0.00000            Van der Waals: 0.00000            Coulomb: 0.00000            [K]
	Block[ 1] 0.00000            Van der Waals: 0.00000            Coulomb: 0.00000            [K]
	Block[ 2] 0.00000            Van der Waals: 0.00000            Coulomb: 0.00000            [K]
	Block[ 3] 0.00000            Van der Waals: 0.00000            Coulomb: 0.00000            [K]
	Block[ 4] 0.00000            Van der Waals: 0.00000            Coulomb: 0.00000            [K]
	------------------------------------------------------------------------------
	Average   0.00000            Van der Waals: 0.000000           Coulomb: 0.00000            [K]
	      +/- 0.00000                       +/- 0.000000                +/- 0.00000            [K]

Host polarization energy:
=======================
	Block[ 0]            0.00000 [K]
	Block[ 1]            0.00000 [K]
	Block[ 2]            0.00000 [K]
	Block[ 3]            0.00000 [K]
	Block[ 4]            0.00000 [K]
	------------------------------------------------------------------------------
	Average              0.00000 [K] +/-            0.00000 [K]

Adsorbate polarization energy:
=======================
	Block[ 0]            0.00000 [K]
	Block[ 1]            0.00000 [K]
	Block[ 2]            0.00000 [K]
	Block[ 3]            0.00000 [K]
	Block[ 4]            0.00000 [K]
	------------------------------------------------------------------------------
	Average              0.00000 [K] +/-            0.00000 [K]

Cation polarization energy:
=======================
	Block[ 0]            0.00000 [K]
	Block[ 1]            0.00000 [K]
	Block[ 2]            0.00000 [K]
	Block[ 3]            0.00000 [K]
	Block[ 4]            0.00000 [K]
	------------------------------------------------------------------------------
	Average              0.00000 [K] +/-            0.00000 [K]

Host back-polarization energy:
=======================
	Block[ 0]            0.00000 [K]
	Block[ 1]            0.00000 [K]
	Block[ 2]            0.00000 [K]
	Block[ 3]            0.00000 [K]
	Block[ 4]            0.00000 [K]
	------------------------------------------------------------------------------
	Average              0.00000 [K] +/-            0.00000 [K]

Adsorbate back-polarization energy:
=======================
	Block[ 0]            0.00000 [K]
	Block[ 1]            0.00000 [K]
	Block[ 2]            0.00000 [K]
	Block[ 3]            0.00000 [K]
	Block[ 4]            0.00000 [K]
	------------------------------------------------------------------------------
	Average              0.00000 [K] +/-            0.00000 [K]

Cation back-polarization energy:
=======================
	Block[ 0]            0.00000 [K]
	Block[ 1]            0.00000 [K]
	Block[ 2]            0.00000 [K]
	Block[ 3]            0.00000 [K]
	Block[ 4]            0.00000 [K]
	------------------------------------------------------------------------------
	Average              0.00000 [K] +/-            0.00000 [K]

Tail-correction energy:
=======================
	Block[ 0]            0.00000 [K]
	Block[ 1]            0.00000 [K]
	Block[ 2]            0.00000 [K]
	Block[ 3]            0.00000 [K]
	Block[ 4]            0.00000 [K]
	------------------------------------------------------------------------------
	Average              0.00000 [K] +/-            0.00000 [K]

Distance-constraints energy:
=======================
	Block[ 0]            0.00000 [K]
	Block[ 1]            0.00000 [K]
	Block[ 2]            0.00000 [K]
	Block[ 3]            0.00000 [K]
	Block[ 4]            0.00000 [K]
	------------------------------------------------------------------------------
	Average              0.00000 [K] +/-            0.00000 [K]

Angle-constraints energy:
=======================
	Block[ 0]            0.00000 [K]
	Block[ 1]            0.00000 [K]
	Block[ 2]            0.00000 [K]
	Block[ 3]            0.00000 [K]
	Block[ 4]            0.00000 [K]
	------------------------------------------------------------------------------
	Average              0.00000 [K] +/-            0.00000 [K]

Dihedral-constraints energy:
=======================
	Block[ 0]            0.00000 [K]
	Block[ 1]            0.00000 [K]
	Block[ 2]            0.00000 [K]
	Block[ 3]            0.00000 [K]
	Block[ 4]            0.00000 [K]
	------------------------------------------------------------------------------
	Average              0.00000 [K] +/-            0.00000 [K]

Inversion-bend constraints energy:
=======================
	Block[ 0]            0.00000 [K]
	Block[ 1]            0.00000 [K]
	Block[ 2]            0.00000 [K]
	Block[ 3]            0.00000 [K]
	Block[ 4]            0.00000 [K]
	------------------------------------------------------------------------------
	Average              0.00000 [K] +/-            0.00000 [K]

Out-of-plane-distance constraints energy:
=======================
	Block[ 0]            0.00000 [K]
	Block[ 1]            0.00000 [K]
	Block[ 2]            0.00000 [K]
	Block[ 3]            0.00000 [K]
	Block[ 4]            0.00000 [K]
	------------------------------------------------------------------------------
	Average              0.00000 [K] +/-            0.00000 [K]

Exclusion-constraints energy:
=======================
	Block[ 0]            0.00000 [K]
	Block[ 1]            0.00000 [K]
	Block[ 2]            0.00000 [K]
	Block[ 3]            0.00000 [K]
	Block[ 4]            0.00000 [K]
	------------------------------------------------------------------------------
	Average              0.00000 [K] +/-            0.00000 [K]

Total energy:
=============
	Block[ 0]            0.00000 [K]
	Block[ 1]            0.00000 [K]
	Block[ 2]            0.00000 [K]
	Block[ 3]            0.00000 [K]
	Block[ 4]            0.00000 [K]
	------------------------------------------------------------------------------
	Average              0.00000 [K] +/-            0.00000 [K]

Number of molecules:
====================


Average Widom Rosenbluth factor:
================================

Average Henry coefficient:
==========================

Average adsorption energy <U_gh>_1-<U_h>_0 obtained from Widom-insertion:
(Note: the total heat of adsorption is dH=<U_gh>_1-<U_h>_0 - <U_g> - RT)
=========================================================================

Simulation finished,  1 warnings

Thu Apr 18 12:23:12 2013
Simulation finished on Thursday, April 18.
The end time was 12:23 PM.

