Compiler and run-time data
===========================================================================
RASPA 1.9-12
Compiled as a 64-bits application
Compiler: gcc 4.2.1 Compatible Apple LLVM 6.0 (clang-600.0.54)
Compile Date = Nov 26 2014, Compile Time = 15:49:31

Sun Nov 30 11:04:30 2014
Simulation started on Sunday, November 30.
The start time was 11:04 AM.

Cpu data:    x86_64
Cpu Model:   MacPro5,1
Host name:   server.darkwing.nl
OS release:  14.0.0
OS type:     Darwin
OS version:  14B25


Simulation
===========================================================================
Dimensions: 3
Random number seed: 1417341868
RASPA directory set to: /Users/dubbelda/RASPA/simulations/
String appended to output-files: 
Number of cycles: 50000
Number of initializing cycles: 10000
Number of equilibration cycles: 20000
Print every: 1000
Rectangular boundary condition applied
Timestep: 0.000500
Initialization Ensemble: NVE (constant number of particles N, constant volume V, constant energy E)
Production run ensemble: NVE (constant number of particles N, constant volume V, constant energy E)
	Degrees of freedom:                        500
	Translational Degrees of freedom:          300
	Rotational Degrees of freedom:             200
	Degrees of freedom Framework:              0


Mutual consistent basic set of units:
======================================
Unit of temperature: Kelvin
Unit of length:      1e-10 [m]
Unit of time:        1e-12 [s]
Unit of mass:        1.66054e-27 [kg]
Unit of charge:      1.60218e-19 [C/particle]

Derived units and their conversion factors:
===========================================
Unit of energy:              1.66054e-23 [J]
Unit of force:               1.66054e-13 [N]
Unit of pressure:            1.66054e+07 [Pa]
Unit of velocity:            100 [m/s]
Unit of acceleration:        1e-08 [m^2/s]
Unit of diffusion:           1e-08 [m^2/s]
Unit of dipole moment:       1.60218e-29 [C.m]
Unit of electric potential:  0.000103643 [V]
Unit of electric field:      1.03643e+06 [V]
Unit of polarizability:      1.54587e-35 [-]
Unit of Coulomb potential:   167101.0800066561  [K]
Unit of dielectric constant: 0.0000154587       [s^2 C^2/(kg m^3)]
Unit of wave vectors:        5.3088374589       [cm^1]
Boltzmann constant:          0.8314464919       [-]

Internal conversion factors:
===========================================
Energy to Kelvin:                                    1.2027242847
FH correction factor                                 2.0211930949
Heat capacity conversion factor:                    10.0000088723
From Debye to internal units:                        4.8032067991
Isothermal compressibility conversion factor:        0.0000000602

Energy conversion factors:
===========================================
From mdyne/A to kcal/mol/A^2:           143.933
From mdyne/A to kj/mol/A^2:             602.214
From mdyne/A to K/A^2:                  72429.7
From mdyne A/rad^2 to kcal/mol/deg^2:   0.0438444


Properties computed
===========================================================================
Movies: no
Radial Distribution Function: no
Number of molecules GCMC histogram: no
Histogram of the molecule positions: no
Free energy profiles: no
Pore Size Distribution Function: no
End-to-end distance: no
Histogram of the energy of the system: no
Compute thermodynamic factors: no
Framework spacing histograms: no
Residence times histograms: no
Distance histograms: no
Bend Angle histograms: no
Dihedral angle histograms: no
Angle between planes histograms: no
Molecule properties: no
Infra-red spectra: no
Mean-squared displacement using modified order-N algorithm: no
Velocity-autocorrelation function modified order-N algorithm: no
Rotational velocity-autocorrelation function modified order-N algorithm: no
Molecular orientation-autocorrelation function modified order-N algorithm: no
Bond orientation-autocorrelation function modified order-N algorithm: no
Mean-squared displacement (conventional algorithm): no
Velocity-autocorrelation function (conventional algorithm): no
3D density grid for adsorbates: no
Compute cation an/or adsorption sites: no
dcTST snapshots: no
Compute pressure and stress: no


VTK
===========================================================================
VTK fractional-range position framework atoms: [-0.001000,1.001000] [-0.001000,1.001000] [-0.001000,1.001000]
VTK fractional-range position framework bonds: [-0.151000,1.151000] [-0.151000,1.151000] [-0.151000,1.151000]
VTK fractional-range com-position adsorbate molecules: [-0.101000,1.101000] [-0.101000,1.101000] [-0.101000,1.101000]
VTK fractional-range com-position cation molecules: [-0.101000,1.101000] [-0.101000,1.101000] [-0.101000,1.101000]
	3D free energy grid made for the full simulation-cell


Thermo/Baro-stat NHC parameters
===========================================================================
External temperature: 260 [K]
Beta: 0.00462586 [energy unit]
External Pressure: 0 [Pa]


Thermostat chain-length: 3
Timescale parameter for thermostat: 0.150000 [ps]
Barostat chain-length:   3
Timescale parameter for barostat:   0.150000 [ps]

Number of Yoshida-Suzuki decomposition steps: 5
Number of respa steps: 5


Method and settings for electrostatics
===============================================================================
Dielectric constant of the medium : 1.000000
Charge from charge-equilibration: no
Ewald summation is used (exact solution of a periodic system)
Relative precision                : 1e-06
Alpha convergence parameter       : 0.265058
kvec (x,y,z)                      : 16 16 16


CFC-RXMC parameters
===========================================================================
Number of reactions: 0


Rattle parameters
===========================================================================
Distance constraint type: r^2-r^2_0
Bend angle constraint type: theta-theta_0
Dihedral angle constraint type: phi-phi_0
Inversion-bend angle constraint type: chi-chi_0
Out-of-plane distance constraint type: r-r_0


Spectra parameters
===========================================================================
Compute normal modes: no


Minimization parameters
===========================================================================
Generalized coordinates are: Cartesian center-of-mass, elements of the orientational matrix p1,p2,p3 and strain
Potential derivatives are evaluated: analytically
Translation of the system is removed from the generalized Hessian: no
Rotation of the system is removed from the generalized Hessian: no
Maximum step-length: 0.3
Convergence factor: 1
Maximum number of minimization steps: 10000
Use gradients in the line-minimizations: yes
RMS gradient tolerance: 1e-06
Maximum gradient tolerance: 1e-06

Distance constraints: 0
Angle constraints: 0
Dihedral constraints: 0

Improper dihedral constraints: 0

Inversion-bend constraints: 0

Out-of-plane constraints: 0

Harmonic distance constraints: 0
Harmonic angle constraints: 0
Harmonic dihedral constraints: 0

Dihedral mid-point measurements: 0

All framework atoms are fixed

Fixed adsorbate atoms:  
Fixed adsorbate groups (center-of-mass):  
Fixed adsorbate groups (orientation):  

Fixed cation atoms:  
Fixed cation groups (center-of-mass):  
Fixed cation groups (orientation):  


dcTST parameters
===========================================================================
Free energy profiles computed: no
Free energy profiles written every 5000 cycles
Free energy mapping: mapped to a,b,c-coordinates
BarrierPosition:       0.0000000000       0.0000000000       0.0000000000
BarrierNormal:         0.0000000000       0.0000000000       0.0000000000
Start with a molecule on top of the barrier: no
Maximum distance to barrier (e.g. distance to minumum free energy):       0.0000000000 [A]
Maximum trajectory time:      10.0000000000 [ps]
Each configuration is used with 5 different initial velocities


Cbmc parameters
===========================================================================
Biasing method: using only the VDW part
Number of trial positions:                                       10
Number of trial positions (reinsertion):                         10
Number of trial positions (partial reinsertion):                 10
Number of trial positions (identity-change):                     10
Number of trial positions (Gibbs particle transfer):             10
Number of trial positions (insertion/deletion):                  10
Number of trial positions (Widom insertion):                     10
Number of trial positions coupled Torsion-selection:             100
Number of trial positions first bead:                            10
Number of trial positions first bead (reinsertion):              10
Number of trial positions first bead (partial reinsertion):      10
Number of trial positions first bead (identity-change):          10
Number of trial positions first bead (Gibbs particle transfer):  10
Number of trial positions first bead (insertion/deletion):       10
Number of trial positions first bead (Widom insertion):          10
Number of trial moves per open bead:                             150
Target acceptance ratio small-mc scheme:                         0.400000
Energy overlap criteria:                                         1e+07
Minimal Rosenbluth factor:                                       1e-150


Pseudo atoms: 10
===========================================================================
Pseudo Atom[   0] Name UNIT     Oxidation:          Element: H    pdb-name: H    Scat. Types:   1   1 Mass=1.000000000  B-factor:0.000   
                 Charge=1.000000000          Polarization=0.000000000  [A^3] (considered a charged atom and no polarization)  Interactions: yes
                 Anisotropic factor:    0.000 [-] (Absolute), Radius:    1.000 [A], Framework-atom:  no
Pseudo Atom[   1] Name CH4_sp3  Oxidation: +0       Element: C    pdb-name: C    Scat. Types:   7   6 Mass=16.042460000 B-factor:1.000   
                 Charge=0.000000000          Polarization=0.000000000  [A^3] (considered a chargeless atom and no polarization)  Interactions: yes
                 Anisotropic factor:    0.000 [-] (Absolute), Radius:    1.000 [A], Framework-atom:  no
Pseudo Atom[   2] Name CH3_sp3  Oxidation: +0       Element: C    pdb-name: C    Scat. Types:   7   6 Mass=15.034520000 B-factor:1.000   
                 Charge=0.000000000          Polarization=0.000000000  [A^3] (considered a chargeless atom and no polarization)  Interactions: yes
                 Anisotropic factor:    0.000 [-] (Absolute), Radius:    1.000 [A], Framework-atom:  no
Pseudo Atom[   3] Name CH2_sp3  Oxidation: +0       Element: C    pdb-name: C    Scat. Types:   7   6 Mass=14.026580000 B-factor:1.000   
                 Charge=0.000000000          Polarization=0.000000000  [A^3] (considered a chargeless atom and no polarization)  Interactions: yes
                 Anisotropic factor:    0.000 [-] (Absolute), Radius:    1.000 [A], Framework-atom:  no
Pseudo Atom[   4] Name CH_sp3   Oxidation: +0       Element: C    pdb-name: C    Scat. Types:   7   6 Mass=13.018640000 B-factor:1.000   
                 Charge=0.000000000          Polarization=0.000000000  [A^3] (considered a chargeless atom and no polarization)  Interactions: yes
                 Anisotropic factor:    0.000 [-] (Absolute), Radius:    1.000 [A], Framework-atom:  no
Pseudo Atom[   5] Name C_sp3    Oxidation: +0       Element: C    pdb-name: C    Scat. Types:   7   6 Mass=12.000000000 B-factor:1.000   
                 Charge=0.000000000          Polarization=0.000000000  [A^3] (considered a chargeless atom and no polarization)  Interactions: yes
                 Anisotropic factor:    0.000 [-] (Absolute), Radius:    1.000 [A], Framework-atom:  no
Pseudo Atom[   6] Name C_co2    Oxidation: +0       Element: C    pdb-name: C    Scat. Types:   7   6 Mass=12.010700000 B-factor:1.000   
                 Charge=0.700000000          Polarization=1.508000000  [A^3] (considered a charged atom and polarizable)  Interactions: yes
                 Anisotropic factor:    0.000 [-] (Relative), Radius:    0.720 [A], Framework-atom:  no
Pseudo Atom[   7] Name O_co2    Oxidation: +0       Element: O    pdb-name: O    Scat. Types:   9   8 Mass=15.999400000 B-factor:1.000   
                 Charge=-0.350000000         Polarization=0.947500000  [A^3] (considered a charged atom and polarizable)  Interactions: yes
                 Anisotropic factor:    0.000 [-] (Relative), Radius:    0.680 [A], Framework-atom:  no
Pseudo Atom[   8] Name N_n2     Oxidation: +0       Element: N    pdb-name: N    Scat. Types:   8   7 Mass=14.006740000 B-factor:1.000   
                 Charge=-0.482000000         Polarization=0.000000000  [A^3] (considered a charged atom and no polarization)  Interactions: yes
                 Anisotropic factor:    0.000 [-] (Relative), Radius:    0.700 [A], Framework-atom:  no
Pseudo Atom[   9] Name N_com    Oxidation: +0       Element: N    pdb-name: N    Scat. Types:   8   7 Mass=0.000000000  B-factor:1.000   
                 Charge=0.964000000          Polarization=0.000000000  [A^3] (considered a charged atom and no polarization)  Interactions:  no
                 Anisotropic factor:    0.000 [-] (Relative), Radius:    0.700 [A], Framework-atom:  no


Forcefield: TraPPE
===========================================================================
Minimal distance: 1
CutOff VDW : 12.800000 (163.840000)
CutOff VDW switching on: 11.520000 (132.710400)
CutOff charge-charge : 12.000000 (144.000000)
CutOff charge-charge switching on: 7.800000 (60.840000)
CutOff charge-bonddipole : 12.000000 (144.000000)
CutOff charge-bondipole switching on: 8.400000 (70.560000)
CutOff bonddipole-bonddipole : 12.000000 (144.000000)
CutOff bonddipole-bondipole switching on: 9.000000 (81.000000)
Polarization is neglected
TailCorrections are used
All potentials are unshifted !!!!!!

General mixing rule: Lorentz-Berthelot mixing rules are used FIRST for cross terms
0 cross terms are overwritten using the individual mixing rules from the file 'force_field_mixing_rules.def'
and then 0 terms are overwritten using the specific interactions from the file 'force_field.def'

The force field and all the interactions:
CH4_sp3 - CH4_sp3 [LENNARD_JONES] p_0/k_B: 148.00000 [K], p_1: 3.73000 [A], shift/k_B:   0.00000000 [K], tailcorrection: yes
CH4_sp3 - CH3_sp3 [LENNARD_JONES] p_0/k_B: 120.43255 [K], p_1: 3.74000 [A], shift/k_B:   0.00000000 [K], tailcorrection: yes
CH4_sp3 - CH2_sp3 [LENNARD_JONES] p_0/k_B:  82.51061 [K], p_1: 3.84000 [A], shift/k_B:   0.00000000 [K], tailcorrection: yes
CH4_sp3 -  CH_sp3 [LENNARD_JONES] p_0/k_B:  38.47077 [K], p_1: 4.20500 [A], shift/k_B:   0.00000000 [K], tailcorrection: yes
CH4_sp3 -   C_sp3 [LENNARD_JONES] p_0/k_B:   8.60233 [K], p_1: 5.06500 [A], shift/k_B:   0.00000000 [K], tailcorrection: yes
CH4_sp3 -   C_co2 [LENNARD_JONES_CONTINUOUS_FRACTIONAL] p_0/k_B:  63.21392 [K], p_1: 3.26500 [A], shift/k_B:   0.00000000 [K], tailcorrection: yes
CH4_sp3 -   O_co2 [LENNARD_JONES_CONTINUOUS_FRACTIONAL] p_0/k_B: 108.12955 [K], p_1: 3.39000 [A], shift/k_B:   0.00000000 [K], tailcorrection: yes
CH4_sp3 -    N_n2 [LENNARD_JONES] p_0/k_B:  72.99315 [K], p_1: 3.52000 [A], shift/k_B:   0.00000000 [K], tailcorrection: yes
CH3_sp3 - CH3_sp3 [LENNARD_JONES] p_0/k_B:  98.00000 [K], p_1: 3.75000 [A], shift/k_B:   0.00000000 [K], tailcorrection: yes
CH3_sp3 - CH2_sp3 [LENNARD_JONES] p_0/k_B:  67.14164 [K], p_1: 3.85000 [A], shift/k_B:   0.00000000 [K], tailcorrection: yes
CH3_sp3 -  CH_sp3 [LENNARD_JONES] p_0/k_B:  31.30495 [K], p_1: 4.21500 [A], shift/k_B:   0.00000000 [K], tailcorrection: yes
CH3_sp3 -   C_sp3 [LENNARD_JONES] p_0/k_B:   7.00000 [K], p_1: 5.07500 [A], shift/k_B:   0.00000000 [K], tailcorrection: yes
CH3_sp3 -   C_co2 [LENNARD_JONES_CONTINUOUS_FRACTIONAL] p_0/k_B:  51.43928 [K], p_1: 3.27500 [A], shift/k_B:   0.00000000 [K], tailcorrection: yes
CH3_sp3 -   O_co2 [LENNARD_JONES_CONTINUOUS_FRACTIONAL] p_0/k_B:  87.98864 [K], p_1: 3.40000 [A], shift/k_B:   0.00000000 [K], tailcorrection: yes
CH3_sp3 -    N_n2 [LENNARD_JONES] p_0/k_B:  59.39697 [K], p_1: 3.53000 [A], shift/k_B:   0.00000000 [K], tailcorrection: yes
CH2_sp3 - CH2_sp3 [LENNARD_JONES] p_0/k_B:  46.00000 [K], p_1: 3.95000 [A], shift/k_B:   0.00000000 [K], tailcorrection: yes
CH2_sp3 -  CH_sp3 [LENNARD_JONES] p_0/k_B:  21.44761 [K], p_1: 4.31500 [A], shift/k_B:   0.00000000 [K], tailcorrection: yes
CH2_sp3 -   C_sp3 [LENNARD_JONES] p_0/k_B:   4.79583 [K], p_1: 5.17500 [A], shift/k_B:   0.00000000 [K], tailcorrection: yes
CH2_sp3 -   C_co2 [LENNARD_JONES_CONTINUOUS_FRACTIONAL] p_0/k_B:  35.24202 [K], p_1: 3.37500 [A], shift/k_B:   0.00000000 [K], tailcorrection: yes
CH2_sp3 -   O_co2 [LENNARD_JONES_CONTINUOUS_FRACTIONAL] p_0/k_B:  60.28267 [K], p_1: 3.50000 [A], shift/k_B:   0.00000000 [K], tailcorrection: yes
CH2_sp3 -    N_n2 [LENNARD_JONES] p_0/k_B:  40.69398 [K], p_1: 3.63000 [A], shift/k_B:   0.00000000 [K], tailcorrection: yes
 CH_sp3 -  CH_sp3 [LENNARD_JONES] p_0/k_B:  10.00000 [K], p_1: 4.68000 [A], shift/k_B:   0.00000000 [K], tailcorrection: yes
 CH_sp3 -   C_sp3 [LENNARD_JONES] p_0/k_B:   2.23607 [K], p_1: 5.54000 [A], shift/k_B:   0.00000000 [K], tailcorrection: yes
 CH_sp3 -   C_co2 [LENNARD_JONES_CONTINUOUS_FRACTIONAL] p_0/k_B:  16.43168 [K], p_1: 3.74000 [A], shift/k_B:   0.00000000 [K], tailcorrection: yes
 CH_sp3 -   O_co2 [LENNARD_JONES_CONTINUOUS_FRACTIONAL] p_0/k_B:  28.10694 [K], p_1: 3.86500 [A], shift/k_B:   0.00000000 [K], tailcorrection: yes
 CH_sp3 -    N_n2 [LENNARD_JONES] p_0/k_B:  18.97367 [K], p_1: 3.99500 [A], shift/k_B:   0.00000000 [K], tailcorrection: yes
  C_sp3 -   C_sp3 [LENNARD_JONES] p_0/k_B:   0.50000 [K], p_1: 6.40000 [A], shift/k_B:   0.00000000 [K], tailcorrection: yes
  C_sp3 -   C_co2 [LENNARD_JONES_CONTINUOUS_FRACTIONAL] p_0/k_B:   3.67423 [K], p_1: 4.60000 [A], shift/k_B:   0.00000000 [K], tailcorrection: yes
  C_sp3 -   O_co2 [LENNARD_JONES_CONTINUOUS_FRACTIONAL] p_0/k_B:   6.28490 [K], p_1: 4.72500 [A], shift/k_B:   0.00000000 [K], tailcorrection: yes
  C_sp3 -    N_n2 [LENNARD_JONES] p_0/k_B:   4.24264 [K], p_1: 4.85500 [A], shift/k_B:   0.00000000 [K], tailcorrection: yes
  C_co2 -   C_co2 [LENNARD_JONES_CONTINUOUS_FRACTIONAL] p_0/k_B:  27.00000 [K], p_1: 2.80000 [A], shift/k_B:   0.00000000 [K], tailcorrection: yes
  C_co2 -   O_co2 [LENNARD_JONES_CONTINUOUS_FRACTIONAL] p_0/k_B:  46.18441 [K], p_1: 2.92500 [A], shift/k_B:   0.00000000 [K], tailcorrection: yes
  C_co2 -    N_n2 [LENNARD_JONES_CONTINUOUS_FRACTIONAL] p_0/k_B:  31.17691 [K], p_1: 3.05500 [A], shift/k_B:   0.00000000 [K], tailcorrection: yes
  O_co2 -   O_co2 [LENNARD_JONES_CONTINUOUS_FRACTIONAL] p_0/k_B:  79.00000 [K], p_1: 3.05000 [A], shift/k_B:   0.00000000 [K], tailcorrection: yes
  O_co2 -    N_n2 [LENNARD_JONES_CONTINUOUS_FRACTIONAL] p_0/k_B:  53.32917 [K], p_1: 3.18000 [A], shift/k_B:   0.00000000 [K], tailcorrection: yes
   N_n2 -    N_n2 [LENNARD_JONES] p_0/k_B:  36.00000 [K], p_1: 3.31000 [A], shift/k_B:   0.00000000 [K], tailcorrection: yes


MoleculeDefinitions:
===========================================================================
Component 0 [CO2] (Adsorbate molecule)

	MoleculeDefinitions: TraPPE-UA
	Component contains (at least some) atoms which are charged
	Component contains (at least some) atoms which are polarizable
	Component has a net charge of 0.000000

	Ideal chain Rosenbluth weight: 1
	Ideal chain total energy: 0.000000

	Critical temparure [K]: 304.128200
	Critical pressure [Pa]: 7377300.000000
	Acentric factor [-]: 0.223940

	RXMC partition factor [-]: 0.000000

	Vapour=stable, Liquid=metastable

	MolFraction:           1.0000000000 [-]
	Compressibility:       0.0000000000 [-]

	Density of the bulk fluid phase:       0.0000000000 [kg/m^3]


	Amount of excess molecules:       0.0000000000 [-]

	Conversion factor molecules/unit cell -> mol/kg:                inf [-]
	Conversion factor molecules/unit cell -> gr/gr:                inf [-]
	Conversion factor molecules/unit cell -> cm^3 STP/gr:                inf [-]
	Conversion factor molecules/unit cell -> cm^3 STP/cm^3:       0.1723114572 [-]
	Conversion factor mol/kg -> cm^3 STP/gr:      22.4139757476 [-]
	Conversion factor mol/kg -> cm^3 STP/cm^3:       0.0000000000 [-]

	Partial pressure: -16605402.00000000000000 [Pa]
	                    -124540.51499999999942 [Torr]
	                       -166.05402000000001 [bar]
	                       -163.88257586972614 [atm]

	Fugacity coefficient:      -1.0000000000 [-]

	Partial fugacity:  16605402.00000000000000 [Pa]
	                     124540.51499999999942 [Torr]
	                        166.05402000000001 [bar]
	                        163.88257586972614 [atm]

	Molecule contains 3 number of atoms
		atom:    0  is of type:    7 [     O_co2] (group: 0)
		atom:    1  is of type:    6 [     C_co2] (group: 0)
		atom:    2  is of type:    7 [     O_co2] (group: 0)

	Molecule contains 0 chirality centers

	Molecule contains 1 number of groups

		group: 0 containing: 3 elements
		-------------------------------------------------
		the group is rigid and linear
		Mass: 44.009500 [a.u.]
		Mass: 4.157914 [kg/m^3]

		Rotational Degrees of freedom: 2
		Diagonalized inertia vector:      43.0575852800
		                                  43.0575852800
		                                   0.0000000000
		number of atoms: 3
			element: 0 atom: 0 [     O_co2] Charge: -0.350000 Anisotropy: 0.000000 Position:  0.000000 -0.000000  1.160000 Connectivity: 1 (1 )
			element: 1 atom: 1 [     C_co2] Charge:  0.700000 Anisotropy: 0.000000 Position:  0.000000 -0.000000  0.000000 Connectivity: 2 (0 2 )
			element: 2 atom: 2 [     O_co2] Charge: -0.350000 Anisotropy: 0.000000 Position:  0.000000 -0.000000 -1.160000 Connectivity: 1 (1 )
		number of permanent dipoles: 0
		number of polarizabilities: 0

		Dipole:           0.0000000000 [D]
		Quadrupole:       2.2621182741       2.2621182741      -4.5242365482 [D Angstrom]
		Quadrupole tensor [D Angstrom]
				       2.2621182741       0.0000000000       0.0000000000
				       0.0000000000       2.2621182741       0.0000000000
				       0.0000000000       0.0000000000      -4.5242365482

	Starting bead for growth               : 0

	Degrees of freedom                     : 0
	Translational degrees of freedom       : 0
	Rotational degrees of freedom          : 0
	Vibrational degrees of freedom         : 0
	Constraint degrees of freedom          : 0

	Number of atoms                        : 3

	Number of constraint bonds             : 0
	Number of constraint bends             : 0
	Number of constraint inversion bends   : 0
	Number of constraint torsions          : 0
	Number of constraint improper torsions : 0
	Number of constraint improper torsions : 0

	Number of bonds                        : 2
	Number of Urey-Bradleys                : 0
	Number of bends                        : 0
	Number of inversion bends              : 0
	Number of torsions                     : 0
	Number of improper torsions            : 0
	Number of improper torsions            : 0

	Number of bond/bond cross terms        : 0
	Number of bond/bend cross terms        : 0
	Number of bend/bend cross terms        : 0
	Number of stretch/torsion cross terms  : 0
	Number of bend/torsion cross terms     : 0

	Number of charges                      : 3
	Number of bond-dipoles                 : 0

	Number of intra Van der Waals                             : 0
	Number of intra charge-charge Coulomb                     : 0
	Number of intra charge-bonddipole Coulomb                 : 0
	Number of intra bonddipole-bonddipole Coulomb             : 0

	Number of excluded intra charge-charge Coulomb                     : 3
	Number of excluded intra charge-bonddipole Coulomb                 : 0
	Number of excluded intra bonddipole-bonddipole Coulomb             : 0

	Number of cbmc-config moves                               : 0

	Particle Moves:             
		ProbabilityTranslationMove:                  24.390244
			TranslationDirection:      XYZ
		Percentage of random translation moves:            0.000000
		Percentage of rotation moves:                      24.390244
		Percentage of random rotation moves:               0.000000
		Percentage of partial reinsertion moves:           0.000000
		Percentage of reinsertion moves:                   24.390244
		Percentage of reinsertion-in-place moves:          0.000000
		Percentage of reinsertion-in-plane moves:          0.000000
		Percentage of identity-change moves:               0.000000
		Percentage of swap (insert/delete) moves:          0.000000
		Percentage of CF swap lambda moves:                0.000000
		Percentage of CB/CFMC swap lambda moves:           0.000000
		Percentage of Widom insertion moves:               0.000000
		Percentage of surface-area moves:                  0.000000
		Percentage of Gibbs particle-transfer moves:       0.000000
		Percentage of Gibbs identity-change moves:         0.000000
		Percentage of CF Gibbs lambda-transfer moves:      24.390244
		Percentage of CB/CFMC Gibbs lambda-transfer moves: 0.000000

	System Moves:
		Percentage of parallel-tempering moves:            0.000000
		Percentage of hyper-parallel-tempering moves:      0.000000
		Percentage of parallel-mol-fraction moves:         0.000000
			   Component A: 0 B: 1
		Percentage of chiral inversion moves:              0.000000
		Percentage of Hybrid-NVE moves:                    0.000000
		Percentage of Hybrid-NPH moves:                    0.000000
		Percentage of Hybrid-NPHPR moves:                  0.000000
		Percentage of volume-change moves:                 0.000000
		Percentage of box-shape-change moves:              0.000000
		Percentage of Gibbs volume-change moves:           2.439024
		Percentage of framework-change moves:              0.000000
		Percentage of framework-shift moves:               0.000000
		Percentage of reactive MC moves:                   0.000000

	Moves are restricted: No
	No biased sampling used for this component

	Number of Bonds: 2
	--------------------------------------------
	Bond interaction 0: A=0 B=1 Type:RIGID_BOND
		r_0=1.1600000000       [A]
	Bond interaction 1: A=1 B=2 Type:RIGID_BOND
		r_0=1.1600000000       [A]


	number of identity-config changes: 1
	--------------------------------------------
	nr fixed 1: 0 

	Number of pockets blocked in a unitcell: 0
		Pockets are NOT blocked for this component



System Properties
===========================================================================
Unit cell size: 60.000000 60.000000 60.000000
Cell angles (radians)  alpha: 1.570796 beta: 1.570796 gamma: 1.570796
Cell angles (degrees)  alpha: 90.000000 beta: 90.000000 gamma: 90.000000
Number of unitcells [a]: 1
Number of unitcells [b]: 1
Number of unitcells [c]: 1

RECTANGULAR Boundary conditions: alpha=beta=gamma=90 degrees

Cartesian axis A is collinear with crystallographic axis a
Cartesian axis B is collinear with (axb)xA
Cartesian axis C is collinear with (axb)

lengths of cell vectors:
 60.00000  60.00000  60.00000
cosines of cell angles:
  0.00000   0.00000   0.00000
perpendicular cell widths:
 60.00000  60.00000  60.00000
volume of the cell: 216000.000000000000 (A^3)

Orthogonalization matrix Box
Transforms fractional coordinates abc into orthonormal Cartesian coordinates xyz
Deorthogonalization matrix InverseBox
Transforms orthonormal Cartesian coordinates xyz into fractional coordinates xyz

Box[1]:
	   60.000000000000     0.000000000000     0.000000000000
	    0.000000000000    60.000000000000     0.000000000000
	    0.000000000000     0.000000000000    60.000000000000

Inverse box[1]:
	    0.016666666667    -0.000000000000    -0.000000000000
	    0.000000000000     0.016666666667    -0.000000000000
	    0.000000000000     0.000000000000     0.016666666667


Unitcell box[1]:
	   60.000000000000     0.000000000000     0.000000000000
	    0.000000000000    60.000000000000     0.000000000000
	    0.000000000000     0.000000000000    60.000000000000

Unitcell inverse box[1]:
	    0.016666666667    -0.000000000000    -0.000000000000
	    0.000000000000     0.016666666667    -0.000000000000
	    0.000000000000     0.000000000000     0.016666666667

lengths of cell vectors (inverse box):
  0.01667   0.01667   0.01667
cosines of cell angles (inverse box):
 -0.00000  -0.00000  -0.00000
perpendicular cell widths (inverse):
  0.01667   0.01667   0.01667
volume of the cell: 216000.000000000000 (A^3)

No replicas are used
Framework is simulated as 'rigid'
Number of framework atoms: 0
Number of framework atoms in the unit cell: 0
Framework Mass:     0.000000000000 [g/mol]
Framework Density:     0.000000000000 [kg/m^3]                inf [cm^3/g]
Helium void fraction:    0.00000000
Available pore volume:    0.00000000 [A^3]           nan [cm^3/g]
Conversion factor from molecule/unit cell -> kmol/m^3: 0.00768768, kmol/m^3 accesible pore volume: inf

Number Of Frameworks (per system): 0
----------------------------------------------------------------------

Current Atom Status
===========================================================================
Number of framework atoms        : 0
Number of cations molecules      : 0
Number of adsorbate molecules    : 100
Component    0 :  100 molecules
Pseudo Atoms    0 [    UNIT]:    0 atoms
Pseudo Atoms    1 [ CH4_sp3]:    0 atoms
Pseudo Atoms    2 [ CH3_sp3]:    0 atoms
Pseudo Atoms    3 [ CH2_sp3]:    0 atoms
Pseudo Atoms    4 [  CH_sp3]:    0 atoms
Pseudo Atoms    5 [   C_sp3]:    0 atoms
Pseudo Atoms    6 [   C_co2]:  100 atoms
Pseudo Atoms    7 [   O_co2]:  200 atoms
Pseudo Atoms    8 [    N_n2]:    0 atoms
Pseudo Atoms    9 [   N_com]:    0 atoms


Current (initial full energy) Energy Status
===========================================================================

Internal energy:
Host stretch energy:                                            0.00000000
Host UreyBradley energy:                                        0.00000000
Host bend energy:                                               0.00000000
Host inversion-bend energy:                                     0.00000000
Host torsion energy:                                            0.00000000
Host improper torsion energy:                                   0.00000000
Host out-of-plane energy:                                       0.00000000
Host stretch/stretch energy:                                    0.00000000
Host bend/bend energy:                                          0.00000000
Host stretch/bend energy:                                       0.00000000
Host stretch/torsion energy:                                    0.00000000
Host bend/torsion energy:                                       0.00000000

Adsorbate stretch energy:                                       0.00000000
Adsorbate UreyBradley energy:                                   0.00000000
Adsorbate bend energy:                                          0.00000000
Adsorbate inversion-bend energy:                                0.00000000
Adsorbate torsion energy:                                       0.00000000
Adsorbate improper torsion energy:                              0.00000000
Adsorbate out-of-plane energy:                                  0.00000000
Adsorbate stretch/stretch energy:                               0.00000000
Adsorbate bend/bend energy:                                     0.00000000
Adsorbate stretch/bend energy:                                  0.00000000
Adsorbate stretch/torsion energy:                               0.00000000
Adsorbate bend/torsion energy:                                  0.00000000
Adsorbate intra VDW energy:                                     0.00000000
Adsorbate intra charge-charge Coulomb energy:                   0.00000000
Adsorbate intra charge-bonddipole Coulomb energy:               0.00000000
Adsorbate intra bonddipole-bonddipole Coulomb energy:           0.00000000

Cation stretch energy:                                          0.00000000
Cation UreyBradley energy:                                      0.00000000
Cation bend energy:                                             0.00000000
Cation inversion-bend energy:                                   0.00000000
Cation torsion energy:                                          0.00000000
Cation improper torsion energy:                                 0.00000000
Cation out-of-plane energy:                                     0.00000000
Cation stretch/stretch energy:                                  0.00000000
Cation bend/bend energy:                                        0.00000000
Cation stretch/bend energy:                                     0.00000000
Cation stretch/torsion energy:                                  0.00000000
Cation bend/torsion energy:                                     0.00000000
Cation intra VDW energy:                                        0.00000000
Cation intra charge-charge Coulomb energy:                      0.00000000
Cation intra charge-bonddipole Coulomb energy:                  0.00000000
Cation intra bonddipole-bonddipole Coulomb energy:              0.00000000

Host/Host energy:                                             0.00000000
	Host/Host VDW energy:                                         0.00000000
	Host/Host Coulomb energy:                                     0.00000000
	Host/Host charge-charge Real energy:                          0.00000000
	Host/Host charge-charge Fourier energy:                       0.00000000
	Host/Host charge-bonddipole Real energy:                      0.00000000
	Host/Host charge-bonddipole Fourier energy:                   0.00000000
	Host/Host bondipole-bonddipole Real energy:                   0.00000000
	Host/Host bondipole-bonddipole Fourier energy:                0.00000000

Host/Adsorbate energy:                                        0.00000000
	Host/Adsorbate VDW energy:                                    0.00000000
	Host/Adsorbate Coulomb energy:                                0.00000000
	Host/Adsorbate charge-charge Real energy:                     0.00000000
	Host/Adsorbate charge-charge Fourier energy:                  0.00000000
	Host/Adsorbate charge-bonddipole Real energy:                 0.00000000
	Host/Adsorbate charge-bonddipole Fourier energy:              0.00000000
	Host/Adsorbate bondipole-bonddipole Real energy:              0.00000000
	Host/Adsorbate bondipole-bonddipole Fourier energy:           0.00000000

Host/Cation energy:                                           0.00000000
	Host/Cation VDW energy:                                       0.00000000
	Host/Cation Coulomb energy:                                   0.00000000
	Host/Cation charge-charge Real energy:                        0.00000000
	Host/Cation charge-charge Fourier energy:                     0.00000000
	Host/Cation charge-bonddipole Real energy:                    0.00000000
	Host/Cation charge-bonddipole Fourier energy:                 0.00000000
	Host/Cation bondipole-bonddipole Real energy:                 0.00000000
	Host/Cation bondipole-bonddipole Fourier energy:              0.00000000

Adsorbate/Adsorbate energy:                                    -3491.76289815
	Adsorbate/Adsorbate VDW energy:                                -4840.41795041
	Adsorbate/Adsorbate Coulomb energy:                             1348.65505226
	Adsorbate/Adsorbate charge-charge Real energy:                  1197.20019523
	Adsorbate/Adsorbate charge-charge Fourier energy:                151.45485703
	Adsorbate/Adsorbate charge-bonddipole Real energy:                 0.00000000
	Adsorbate/Adsorbate charge-bonddipole Fourier energy:              0.00000000
	Adsorbate/Adsorbate bondipole-bonddipole Real energy:              0.00000000
	Adsorbate/Adsorbate bondipole-bonddipole Fourier energy:           0.00000000

Adsorbate/Cation energy:                                           0.00000000
	Adsorbate/Cation VDW energy:                                       0.00000000
	Adsorbate/Cation Coulomb energy:                                   0.00000000
	Adsorbate/Cation charge-charge Real energy:                        0.00000000
	Adsorbate/Cation charge-charge Fourier energy:                     0.00000000
	Adsorbate/Cation charge-bonddipole Real energy:                    0.00000000
	Adsorbate/Cation charge-bonddipole Fourier energy:                 0.00000000
	Adsorbate/Cation bondipole-bonddipole Real energy:                 0.00000000
	Adsorbate/Cation bondipole-bonddipole Fourier energy:              0.00000000

Cation/Cation energy:                                           0.00000000
	Cation/Cation VDW energy:                                       0.00000000
	Cation/Cation Coulomb energy:                                   0.00000000
	Cation/Cation charge-charge Real energy:                        0.00000000
	Cation/Cation charge-charge Fourier energy:                     0.00000000
	Cation/Cation charge-bonddipole Real energy:                    0.00000000
	Cation/Cation charge-bonddipole Fourier energy:                 0.00000000
	Cation/Cation bondipole-bonddipole Real energy:                 0.00000000
	Cation/Cation bondipole-bonddipole Fourier energy:              0.00000000

Polarization energy:
	Host polarization energy:                                     0.00000000
	Adsorbate polarization energy:                                0.00000000
	Cation polarization energy:                                   0.00000000
	Host back-polarization energy:                                     0.00000000
	Adsorbate back-polarization energy:                                0.00000000
	Cation back-polarization energy:                                   0.00000000

Tail-correction energy:                                     -70.84477282

Distance constraints energy:                                  0.00000000
Angle constraints energy:                                     0.00000000
Dihedral constraints energy:                                  0.00000000
Inversion-bend constraints energy:                            0.00000000
Out-of-plane distance constraints energy:                     0.00000000
Exclusion constraints energy:                                 0.00000000

===================================================================
Total energy: -3562.607670970603
	Total Van der Waals: -4840.417950
	Total Coulomb: 1348.655052

	Total Polarization: 0.000000







+++++++++++++++++++++++++++++++++++++++++++++++++++++++++++++++++++++++++
Starting simulation
+++++++++++++++++++++++++++++++++++++++++++++++++++++++++++++++++++++++++

[Init] Current cycle: 0 out of 10000
========================================================================================================

Net charge: 0 (F: 0, A: 0, C: 0)
Current Box:  60.00000   0.00000   0.00000 [A]
               0.00000  60.00000   0.00000 [A]
               0.00000   0.00000  60.00000 [A]
Box-lengths:  60.00000  60.00000  60.00000 Box-angles:   90.00000  90.00000  90.00000 [degrees]
Volume: 216000.00000 [A^3]

Amount of molecules per component:
----------------------------------------------------------------------------------------------------------------------------------------------------
Component 0 (CO2), current number of integer/fractional/reaction molecules: 99/1/0, density:  33.49479 [kg/m^3]
	Fractional molecule-id: 81, max. Lambda-change: 0.500000 (CFMC) 0.500000 (CB/CFMC)
	Lambda factors: 0.500000 0.500000 0.500000 
	Biasing Factors: 0.000000 0.000000 0.000000 0.000000 0.000000 0.000000 0.000000 0.000000 0.000000 0.000000 
	                 0.000000 0.000000 0.000000 0.000000 0.000000 0.000000 0.000000 0.000000 0.000000 0.000000 
	                 0.000000 
----------------------------------------------------------------------------------------------------------------------------------------------------
Degrees of freedom: 500 0 500 0
Number of Framework-atoms:      0
Number of Adsorbates:         100 (99 integer, 1 fractional, 0 reaction)
Number of Cations:              0 (0 integer, 0 fractional, reaction

Current total potential energy:             -3562.6076709706 [K]
	Current Host-Host energy:                     0.0000000000 [K]
	Current Host-Adsorbate energy:                0.0000000000 [K]
	Current Host-Cation energy:                   0.0000000000 [K]
	Current Adsorbate-Adsorbate energy:       -3491.7628981474 [K]
	Current Cation-Cation energy:                 0.0000000000 [K]
	Current Adsorbate-Cation energy:              0.0000000000 [K]



[Init] Current cycle: 1000 out of 10000
========================================================================================================

Net charge: 0 (F: 0, A: 0, C: 0)
Current Box:  59.09466   0.00000   0.00000 [A]
               0.00000  59.09466   0.00000 [A]
               0.00000   0.00000  59.09466 [A]
Box-lengths:  59.09466  59.09466  59.09466 Box-angles:   90.00000  90.00000  90.00000 [degrees]
Volume: 206369.13448 [A^3]

Amount of molecules per component:
----------------------------------------------------------------------------------------------------------------------------------------------------
Component 0 (CO2), current number of integer/fractional/reaction molecules: 138/1/0, density:  48.86863 [kg/m^3]
	Fractional molecule-id: 138, max. Lambda-change: 0.558140 (CFMC) 0.500000 (CB/CFMC)
	Lambda factors: 0.007220 0.007220 0.007220 
	Biasing Factors: 0.000000 0.000000 0.000000 0.000000 0.000000 0.000000 0.000000 0.000000 0.000000 0.000000 
	                 0.000000 0.000000 0.000000 0.000000 0.000000 0.000000 0.000000 0.000000 0.000000 0.000000 
	                 0.000000 
----------------------------------------------------------------------------------------------------------------------------------------------------
Degrees of freedom: 695 0 695 0
Number of Framework-atoms:      0
Number of Adsorbates:         139 (138 integer, 1 fractional, 0 reaction)
Number of Cations:              0 (0 integer, 0 fractional, reaction

Current total potential energy:            -11297.3048723872 [K]
	Current Host-Host energy:                     0.0000000000 [K]
	Current Host-Adsorbate energy:                0.0000000000 [K]
	Current Host-Cation energy:                   0.0000000000 [K]
	Current Adsorbate-Adsorbate energy:      -11154.0377885864 [K]
	Current Cation-Cation energy:                 0.0000000000 [K]
	Current Adsorbate-Cation energy:              0.0000000000 [K]



[Init] Current cycle: 2000 out of 10000
========================================================================================================

Net charge: 0 (F: 0, A: 0, C: 0)
Current Box:  59.05002   0.00000   0.00000 [A]
               0.00000  59.05002   0.00000 [A]
               0.00000   0.00000  59.05002 [A]
Box-lengths:  59.05002  59.05002  59.05002 Box-angles:   90.00000  90.00000  90.00000 [degrees]
Volume: 205901.80394 [A^3]

Amount of molecules per component:
----------------------------------------------------------------------------------------------------------------------------------------------------
Component 0 (CO2), current number of integer/fractional/reaction molecules: 122/1/0, density:  43.30076 [kg/m^3]
	Fractional molecule-id: 122, max. Lambda-change: 0.558140 (CFMC) 0.500000 (CB/CFMC)
	Lambda factors: 0.044976 0.044976 0.044976 
	Biasing Factors: 0.000000 0.000000 0.000000 0.000000 0.000000 0.000000 0.000000 0.000000 0.000000 0.000000 
	                 0.000000 0.000000 0.000000 0.000000 0.000000 0.000000 0.000000 0.000000 0.000000 0.000000 
	                 0.000000 
----------------------------------------------------------------------------------------------------------------------------------------------------
Degrees of freedom: 615 0 615 0
Number of Framework-atoms:      0
Number of Adsorbates:         123 (122 integer, 1 fractional, 0 reaction)
Number of Cations:              0 (0 integer, 0 fractional, reaction

Current total potential energy:             -9219.4388417187 [K]
	Current Host-Host energy:                     0.0000000000 [K]
	Current Host-Adsorbate energy:                0.0000000000 [K]
	Current Host-Cation energy:                   0.0000000000 [K]
	Current Adsorbate-Adsorbate energy:       -9107.0012242369 [K]
	Current Cation-Cation energy:                 0.0000000000 [K]
	Current Adsorbate-Cation energy:              0.0000000000 [K]



[Init] Current cycle: 3000 out of 10000
========================================================================================================

Net charge: 0 (F: 0, A: 0, C: 0)
Current Box:  59.22502   0.00000   0.00000 [A]
               0.00000  59.22502   0.00000 [A]
               0.00000   0.00000  59.22502 [A]
Box-lengths:  59.22502  59.22502  59.22502 Box-angles:   90.00000  90.00000  90.00000 [degrees]
Volume: 207737.87289 [A^3]

Amount of molecules per component:
----------------------------------------------------------------------------------------------------------------------------------------------------
Component 0 (CO2), current number of integer/fractional/reaction molecules: 144/1/0, density:  50.65737 [kg/m^3]
	Fractional molecule-id: 144, max. Lambda-change: 0.558140 (CFMC) 0.500000 (CB/CFMC)
	Lambda factors: 0.087329 0.087329 0.087329 
	Biasing Factors: 0.000000 0.000000 0.000000 0.000000 0.000000 0.000000 0.000000 0.000000 0.000000 0.000000 
	                 0.000000 0.000000 0.000000 0.000000 0.000000 0.000000 0.000000 0.000000 0.000000 0.000000 
	                 0.000000 
----------------------------------------------------------------------------------------------------------------------------------------------------
Degrees of freedom: 725 0 725 0
Number of Framework-atoms:      0
Number of Adsorbates:         145 (144 integer, 1 fractional, 0 reaction)
Number of Cations:              0 (0 integer, 0 fractional, reaction

Current total potential energy:            -10682.8638261151 [K]
	Current Host-Host energy:                     0.0000000000 [K]
	Current Host-Adsorbate energy:                0.0000000000 [K]
	Current Host-Cation energy:                   0.0000000000 [K]
	Current Adsorbate-Adsorbate energy:      -10527.9886236224 [K]
	Current Cation-Cation energy:                 0.0000000000 [K]
	Current Adsorbate-Cation energy:              0.0000000000 [K]



[Init] Current cycle: 4000 out of 10000
========================================================================================================

Net charge: 0 (F: 0, A: 0, C: 0)
Current Box:  59.17514   0.00000   0.00000 [A]
               0.00000  59.17514   0.00000 [A]
               0.00000   0.00000  59.17514 [A]
Box-lengths:  59.17514  59.17514  59.17514 Box-angles:   90.00000  90.00000  90.00000 [degrees]
Volume: 207213.47148 [A^3]

Amount of molecules per component:
----------------------------------------------------------------------------------------------------------------------------------------------------
Component 0 (CO2), current number of integer/fractional/reaction molecules: 135/1/0, density:  47.61147 [kg/m^3]
	Fractional molecule-id: 135, max. Lambda-change: 0.558140 (CFMC) 0.500000 (CB/CFMC)
	Lambda factors: 0.010764 0.010764 0.010764 
	Biasing Factors: 0.000000 0.000000 0.000000 0.000000 0.000000 0.000000 0.000000 0.000000 0.000000 0.000000 
	                 0.000000 0.000000 0.000000 0.000000 0.000000 0.000000 0.000000 0.000000 0.000000 0.000000 
	                 0.000000 
----------------------------------------------------------------------------------------------------------------------------------------------------
Degrees of freedom: 680 0 680 0
Number of Framework-atoms:      0
Number of Adsorbates:         136 (135 integer, 1 fractional, 0 reaction)
Number of Cations:              0 (0 integer, 0 fractional, reaction

Current total potential energy:            -14296.6265745871 [K]
	Current Host-Host energy:                     0.0000000000 [K]
	Current Host-Adsorbate energy:                0.0000000000 [K]
	Current Host-Cation energy:                   0.0000000000 [K]
	Current Adsorbate-Adsorbate energy:      -14160.0357920025 [K]
	Current Cation-Cation energy:                 0.0000000000 [K]
	Current Adsorbate-Cation energy:              0.0000000000 [K]



[Init] Current cycle: 5000 out of 10000
========================================================================================================

Net charge: 0 (F: 0, A: 0, C: 0)
Current Box:  59.25139   0.00000   0.00000 [A]
               0.00000  59.25139   0.00000 [A]
               0.00000   0.00000  59.25139 [A]
Box-lengths:  59.25139  59.25139  59.25139 Box-angles:   90.00000  90.00000  90.00000 [degrees]
Volume: 208015.47058 [A^3]

Amount of molecules per component:
----------------------------------------------------------------------------------------------------------------------------------------------------
Component 0 (CO2), current number of integer/fractional/reaction molecules: 131/1/0, density:  46.02264 [kg/m^3]
	Fractional molecule-id: 131, max. Lambda-change: 0.558140 (CFMC) 0.500000 (CB/CFMC)
	Lambda factors: 0.245291 0.245291 0.245291 
	Biasing Factors: 0.000000 0.000000 0.000000 0.000000 0.000000 0.000000 0.000000 0.000000 0.000000 0.000000 
	                 0.000000 0.000000 0.000000 0.000000 0.000000 0.000000 0.000000 0.000000 0.000000 0.000000 
	                 0.000000 
----------------------------------------------------------------------------------------------------------------------------------------------------
Degrees of freedom: 660 0 660 0
Number of Framework-atoms:      0
Number of Adsorbates:         132 (131 integer, 1 fractional, 0 reaction)
Number of Cations:              0 (0 integer, 0 fractional, reaction

Current total potential energy:            -10298.5273269354 [K]
	Current Host-Host energy:                     0.0000000000 [K]
	Current Host-Adsorbate energy:                0.0000000000 [K]
	Current Host-Cation energy:                   0.0000000000 [K]
	Current Adsorbate-Adsorbate energy:      -10170.3492386725 [K]
	Current Cation-Cation energy:                 0.0000000000 [K]
	Current Adsorbate-Cation energy:              0.0000000000 [K]



[Init] Current cycle: 6000 out of 10000
========================================================================================================

Net charge: 0 (F: 0, A: 0, C: 0)
Current Box:  59.32365   0.00000   0.00000 [A]
               0.00000  59.32365   0.00000 [A]
               0.00000   0.00000  59.32365 [A]
Box-lengths:  59.32365  59.32365  59.32365 Box-angles:   90.00000  90.00000  90.00000 [degrees]
Volume: 208777.43641 [A^3]

Amount of molecules per component:
----------------------------------------------------------------------------------------------------------------------------------------------------
Component 0 (CO2), current number of integer/fractional/reaction molecules: 147/1/0, density:  51.45524 [kg/m^3]
	Fractional molecule-id: 147, max. Lambda-change: 0.352249 (CFMC) 0.500000 (CB/CFMC)
	Lambda factors: 0.008241 0.008241 0.008241 
	Biasing Factors: 0.000000 0.000000 0.000000 0.000000 0.000000 0.000000 0.000000 0.000000 0.000000 0.000000 
	                 0.000000 0.000000 0.000000 0.000000 0.000000 0.000000 0.000000 0.000000 0.000000 0.000000 
	                 0.000000 
----------------------------------------------------------------------------------------------------------------------------------------------------
Degrees of freedom: 740 0 740 0
Number of Framework-atoms:      0
Number of Adsorbates:         148 (147 integer, 1 fractional, 0 reaction)
Number of Cations:              0 (0 integer, 0 fractional, reaction

Current total potential energy:            -15583.1762003196 [K]
	Current Host-Host energy:                     0.0000000000 [K]
	Current Host-Adsorbate energy:                0.0000000000 [K]
	Current Host-Cation energy:                   0.0000000000 [K]
	Current Adsorbate-Adsorbate energy:      -15422.6294817606 [K]
	Current Cation-Cation energy:                 0.0000000000 [K]
	Current Adsorbate-Cation energy:              0.0000000000 [K]



[Init] Current cycle: 7000 out of 10000
========================================================================================================

Net charge: 0 (F: 0, A: 0, C: 0)
Current Box:  59.25323   0.00000   0.00000 [A]
               0.00000  59.25323   0.00000 [A]
               0.00000   0.00000  59.25323 [A]
Box-lengths:  59.25323  59.25323  59.25323 Box-angles:   90.00000  90.00000  90.00000 [degrees]
Volume: 208034.81729 [A^3]

Amount of molecules per component:
----------------------------------------------------------------------------------------------------------------------------------------------------
Component 0 (CO2), current number of integer/fractional/reaction molecules: 150/1/0, density:  52.69277 [kg/m^3]
	Fractional molecule-id: 121, max. Lambda-change: 0.352249 (CFMC) 0.500000 (CB/CFMC)
	Lambda factors: 0.423929 0.423929 0.423929 
	Biasing Factors: 0.000000 0.000000 0.000000 0.000000 0.000000 0.000000 0.000000 0.000000 0.000000 0.000000 
	                 0.000000 0.000000 0.000000 0.000000 0.000000 0.000000 0.000000 0.000000 0.000000 0.000000 
	                 0.000000 
----------------------------------------------------------------------------------------------------------------------------------------------------
Degrees of freedom: 755 0 755 0
Number of Framework-atoms:      0
Number of Adsorbates:         151 (150 integer, 1 fractional, 0 reaction)
Number of Cations:              0 (0 integer, 0 fractional, reaction

Current total potential energy:            -19086.7073309808 [K]
	Current Host-Host energy:                     0.0000000000 [K]
	Current Host-Adsorbate energy:                0.0000000000 [K]
	Current Host-Cation energy:                   0.0000000000 [K]
	Current Adsorbate-Adsorbate energy:      -18918.9894248065 [K]
	Current Cation-Cation energy:                 0.0000000000 [K]
	Current Adsorbate-Cation energy:              0.0000000000 [K]



[Init] Current cycle: 8000 out of 10000
========================================================================================================

Net charge: 0 (F: 0, A: 0, C: 0)
Current Box:  59.31782   0.00000   0.00000 [A]
               0.00000  59.31782   0.00000 [A]
               0.00000   0.00000  59.31782 [A]
Box-lengths:  59.31782  59.31782  59.31782 Box-angles:   90.00000  90.00000  90.00000 [degrees]
Volume: 208715.87344 [A^3]

Amount of molecules per component:
----------------------------------------------------------------------------------------------------------------------------------------------------
Component 0 (CO2), current number of integer/fractional/reaction molecules: 160/1/0, density:  56.02222 [kg/m^3]
	Fractional molecule-id: 87, max. Lambda-change: 0.352249 (CFMC) 0.500000 (CB/CFMC)
	Lambda factors: 0.725913 0.725913 0.725913 
	Biasing Factors: 0.000000 0.000000 0.000000 0.000000 0.000000 0.000000 0.000000 0.000000 0.000000 0.000000 
	                 0.000000 0.000000 0.000000 0.000000 0.000000 0.000000 0.000000 0.000000 0.000000 0.000000 
	                 0.000000 
----------------------------------------------------------------------------------------------------------------------------------------------------
Degrees of freedom: 805 0 805 0
Number of Framework-atoms:      0
Number of Adsorbates:         161 (160 integer, 1 fractional, 0 reaction)
Number of Cations:              0 (0 integer, 0 fractional, reaction

Current total potential energy:            -16990.6260775848 [K]
	Current Host-Host energy:                     0.0000000000 [K]
	Current Host-Adsorbate energy:                0.0000000000 [K]
	Current Host-Cation energy:                   0.0000000000 [K]
	Current Adsorbate-Adsorbate energy:      -16800.5804703948 [K]
	Current Cation-Cation energy:                 0.0000000000 [K]
	Current Adsorbate-Cation energy:              0.0000000000 [K]



[Init] Current cycle: 9000 out of 10000
========================================================================================================

Net charge: 0 (F: 0, A: 0, C: 0)
Current Box:  59.36408   0.00000   0.00000 [A]
               0.00000  59.36408   0.00000 [A]
               0.00000   0.00000  59.36408 [A]
Box-lengths:  59.36408  59.36408  59.36408 Box-angles:   90.00000  90.00000  90.00000 [degrees]
Volume: 209204.64886 [A^3]

Amount of molecules per component:
----------------------------------------------------------------------------------------------------------------------------------------------------
Component 0 (CO2), current number of integer/fractional/reaction molecules: 159/1/0, density:  55.54201 [kg/m^3]
	Fractional molecule-id: 159, max. Lambda-change: 0.352249 (CFMC) 0.500000 (CB/CFMC)
	Lambda factors: 0.625156 0.625156 0.625156 
	Biasing Factors: 0.000000 0.000000 0.000000 0.000000 0.000000 0.000000 0.000000 0.000000 0.000000 0.000000 
	                 0.000000 0.000000 0.000000 0.000000 0.000000 0.000000 0.000000 0.000000 0.000000 0.000000 
	                 0.000000 
----------------------------------------------------------------------------------------------------------------------------------------------------
Degrees of freedom: 800 0 800 0
Number of Framework-atoms:      0
Number of Adsorbates:         160 (159 integer, 1 fractional, 0 reaction)
Number of Cations:              0 (0 integer, 0 fractional, reaction

Current total potential energy:            -16052.1690275413 [K]
	Current Host-Host energy:                     0.0000000000 [K]
	Current Host-Adsorbate energy:                0.0000000000 [K]
	Current Host-Cation energy:                   0.0000000000 [K]
	Current Adsorbate-Adsorbate energy:      -15864.9154182424 [K]
	Current Cation-Cation energy:                 0.0000000000 [K]
	Current Adsorbate-Cation energy:              0.0000000000 [K]



[Equilibration] Current cycle: 0 out of 20000
========================================================================================================

Net charge: 0 (F: 0, A: 0, C: 0)
Current Box:  59.37471   0.00000   0.00000 [A]
               0.00000  59.37471   0.00000 [A]
               0.00000   0.00000  59.37471 [A]
Box-lengths:  59.37471  59.37471  59.37471 Box-angles:   90.00000  90.00000  90.00000 [degrees]
Volume: 209317.00001 [A^3]

Amount of molecules per component:
----------------------------------------------------------------------------------------------------------------------------------------------------
Component 0 (CO2), current number of integer/fractional/reaction molecules: 165/1/0, density:  57.60700 [kg/m^3]
	Fractional molecule-id: 165, max. Lambda-change: 0.352249 (CFMC) 0.500000 (CB/CFMC)
	Lambda factors: 0.115762 0.115762 0.115762 
	Biasing Factors: 0.000000 0.000000 0.000000 0.000000 0.000000 0.000000 0.000000 0.000000 0.000000 0.000000 
	                 0.000000 0.000000 0.000000 0.000000 0.000000 0.000000 0.000000 0.000000 0.000000 0.000000 
	                 0.000000 
----------------------------------------------------------------------------------------------------------------------------------------------------
Degrees of freedom: 830 0 830 0
Number of Framework-atoms:      0
Number of Adsorbates:         166 (165 integer, 1 fractional, 0 reaction)
Number of Cations:              0 (0 integer, 0 fractional, 0 reaction)

Current total potential energy:            -16094.4499566891 [K]
	Current Host-Host energy:                     0.0000000000 [K]
	Current Host-Adsorbate energy:                0.0000000000 [K]
	Current Host-Cation energy:                   0.0000000000 [K]
	Current Adsorbate-Adsorbate energy:      -15892.9971893905 [K]
	Current Cation-Cation energy:                 0.0000000000 [K]
	Current Adsorbate-Cation energy:              0.0000000000 [K]



[Equilibration] Current cycle: 1000 out of 20000
========================================================================================================

Net charge: 0 (F: 0, A: 0, C: 0)
Current Box:  59.33216   0.00000   0.00000 [A]
               0.00000  59.33216   0.00000 [A]
               0.00000   0.00000  59.33216 [A]
Box-lengths:  59.33216  59.33216  59.33216 Box-angles:   90.00000  90.00000  90.00000 [degrees]
Volume: 208867.32611 [A^3]

Amount of molecules per component:
----------------------------------------------------------------------------------------------------------------------------------------------------
Component 0 (CO2), current number of integer/fractional/reaction molecules: 165/1/0, density:  57.73102 [kg/m^3]
	Fractional molecule-id: 36, max. Lambda-change: 0.380058 (CFMC) 0.500000 (CB/CFMC)
	Lambda factors: 0.996237 0.996237 0.996237 
	Biasing Factors: 0.000000 0.370000 0.730000 1.050000 1.190000 1.470000 1.630000 1.910000 2.120000 2.220000 
	                 2.300000 2.660000 2.600000 2.800000 2.690000 2.450000 2.290000 1.940000 1.660000 1.570000 
	                 1.150000 
----------------------------------------------------------------------------------------------------------------------------------------------------
Degrees of freedom: 830 0 830 0
Number of Framework-atoms:      0
Number of Adsorbates:         166 (165 integer, 1 fractional, 0 reaction)
Number of Cations:              0 (0 integer, 0 fractional, 0 reaction)

Current total potential energy:            -15162.5288129770 [K]
	Current Host-Host energy:                     0.0000000000 [K]
	Current Host-Adsorbate energy:                0.0000000000 [K]
	Current Host-Cation energy:                   0.0000000000 [K]
	Current Adsorbate-Adsorbate energy:      -14960.6423347035 [K]
	Current Cation-Cation energy:                 0.0000000000 [K]
	Current Adsorbate-Cation energy:              0.0000000000 [K]



[Equilibration] Current cycle: 2000 out of 20000
========================================================================================================

Net charge: 0 (F: 0, A: 0, C: 0)
Current Box:  59.41445   0.00000   0.00000 [A]
               0.00000  59.41445   0.00000 [A]
               0.00000   0.00000  59.41445 [A]
Box-lengths:  59.41445  59.41445  59.41445 Box-angles:   90.00000  90.00000  90.00000 [degrees]
Volume: 209737.61850 [A^3]

Amount of molecules per component:
----------------------------------------------------------------------------------------------------------------------------------------------------
Component 0 (CO2), current number of integer/fractional/reaction molecules: 166/1/0, density:  57.83991 [kg/m^3]
	Fractional molecule-id: 4, max. Lambda-change: 0.380058 (CFMC) 0.500000 (CB/CFMC)
	Lambda factors: 0.590475 0.590475 0.590475 
	Biasing Factors: 0.000000 0.580000 0.780000 1.280000 1.250000 1.500000 1.780000 1.830000 2.030000 2.040000 
	                 2.100000 2.140000 2.140000 1.990000 2.010000 1.960000 1.740000 1.690000 1.760000 1.480000 
	                 1.430000 
----------------------------------------------------------------------------------------------------------------------------------------------------
Degrees of freedom: 835 0 835 0
Number of Framework-atoms:      0
Number of Adsorbates:         167 (166 integer, 1 fractional, 0 reaction)
Number of Cations:              0 (0 integer, 0 fractional, 0 reaction)

Current total potential energy:            -16474.6843081507 [K]
	Current Host-Host energy:                     0.0000000000 [K]
	Current Host-Adsorbate energy:                0.0000000000 [K]
	Current Host-Cation energy:                   0.0000000000 [K]
	Current Adsorbate-Adsorbate energy:      -16271.2059742132 [K]
	Current Cation-Cation energy:                 0.0000000000 [K]
	Current Adsorbate-Cation energy:              0.0000000000 [K]



[Equilibration] Current cycle: 3000 out of 20000
========================================================================================================

Net charge: 0 (F: 0, A: 0, C: 0)
Current Box:  59.27124   0.00000   0.00000 [A]
               0.00000  59.27124   0.00000 [A]
               0.00000   0.00000  59.27124 [A]
Box-lengths:  59.27124  59.27124  59.27124 Box-angles:   90.00000  90.00000  90.00000 [degrees]
Volume: 208224.58628 [A^3]

Amount of molecules per component:
----------------------------------------------------------------------------------------------------------------------------------------------------
Component 0 (CO2), current number of integer/fractional/reaction molecules: 161/1/0, density:  56.50537 [kg/m^3]
	Fractional molecule-id: 159, max. Lambda-change: 0.380058 (CFMC) 0.500000 (CB/CFMC)
	Lambda factors: 0.887408 0.887408 0.887408 
	Biasing Factors: 0.000000 0.480000 0.840000 1.240000 1.510000 1.630000 1.770000 2.020000 1.940000 2.140000 
	                 2.290000 2.200000 2.310000 2.210000 2.490000 2.260000 2.060000 1.850000 1.740000 1.510000 
	                 1.720000 
----------------------------------------------------------------------------------------------------------------------------------------------------
Degrees of freedom: 810 0 810 0
Number of Framework-atoms:      0
Number of Adsorbates:         162 (161 integer, 1 fractional, 0 reaction)
Number of Cations:              0 (0 integer, 0 fractional, 0 reaction)

Current total potential energy:            -21859.9626816397 [K]
	Current Host-Host energy:                     0.0000000000 [K]
	Current Host-Adsorbate energy:                0.0000000000 [K]
	Current Host-Cation energy:                   0.0000000000 [K]
	Current Adsorbate-Adsorbate energy:      -21667.0949448096 [K]
	Current Cation-Cation energy:                 0.0000000000 [K]
	Current Adsorbate-Cation energy:              0.0000000000 [K]



[Equilibration] Current cycle: 4000 out of 20000
========================================================================================================

Net charge: 0 (F: 0, A: 0, C: 0)
Current Box:  59.26325   0.00000   0.00000 [A]
               0.00000  59.26325   0.00000 [A]
               0.00000   0.00000  59.26325 [A]
Box-lengths:  59.26325  59.26325  59.26325 Box-angles:   90.00000  90.00000  90.00000 [degrees]
Volume: 208140.38338 [A^3]

Amount of molecules per component:
----------------------------------------------------------------------------------------------------------------------------------------------------
Component 0 (CO2), current number of integer/fractional/reaction molecules: 166/1/0, density:  58.28376 [kg/m^3]
	Fractional molecule-id: 166, max. Lambda-change: 0.380058 (CFMC) 0.500000 (CB/CFMC)
	Lambda factors: 0.576296 0.576296 0.576296 
	Biasing Factors: 0.000000 0.310000 0.660000 0.930000 1.100000 1.240000 1.550000 1.670000 1.760000 1.800000 
	                 1.950000 2.070000 2.060000 2.050000 2.230000 2.050000 1.980000 1.770000 1.640000 1.330000 
	                 1.330000 
----------------------------------------------------------------------------------------------------------------------------------------------------
Degrees of freedom: 835 0 835 0
Number of Framework-atoms:      0
Number of Adsorbates:         167 (166 integer, 1 fractional, 0 reaction)
Number of Cations:              0 (0 integer, 0 fractional, 0 reaction)

Current total potential energy:            -16871.8042481591 [K]
	Current Host-Host energy:                     0.0000000000 [K]
	Current Host-Adsorbate energy:                0.0000000000 [K]
	Current Host-Cation energy:                   0.0000000000 [K]
	Current Adsorbate-Adsorbate energy:      -16666.7644549075 [K]
	Current Cation-Cation energy:                 0.0000000000 [K]
	Current Adsorbate-Cation energy:              0.0000000000 [K]



[Equilibration] Current cycle: 5000 out of 20000
========================================================================================================

Net charge: 0 (F: 0, A: 0, C: 0)
Current Box:  59.40951   0.00000   0.00000 [A]
               0.00000  59.40951   0.00000 [A]
               0.00000   0.00000  59.40951 [A]
Box-lengths:  59.40951  59.40951  59.40951 Box-angles:   90.00000  90.00000  90.00000 [degrees]
Volume: 209685.24259 [A^3]

Amount of molecules per component:
----------------------------------------------------------------------------------------------------------------------------------------------------
Component 0 (CO2), current number of integer/fractional/reaction molecules: 165/1/0, density:  57.50583 [kg/m^3]
	Fractional molecule-id: 165, max. Lambda-change: 0.380058 (CFMC) 0.500000 (CB/CFMC)
	Lambda factors: 0.463978 0.463978 0.463978 
	Biasing Factors: 0.000000 0.380000 0.630000 0.820000 1.100000 1.260000 1.540000 1.740000 1.930000 2.060000 
	                 2.020000 2.350000 2.320000 2.540000 2.600000 2.370000 2.090000 1.770000 1.670000 1.340000 
	                 1.460000 
----------------------------------------------------------------------------------------------------------------------------------------------------
Degrees of freedom: 830 0 830 0
Number of Framework-atoms:      0
Number of Adsorbates:         166 (165 integer, 1 fractional, 0 reaction)
Number of Cations:              0 (0 integer, 0 fractional, 0 reaction)

Current total potential energy:            -15604.0628732031 [K]
	Current Host-Host energy:                     0.0000000000 [K]
	Current Host-Adsorbate energy:                0.0000000000 [K]
	Current Host-Cation energy:                   0.0000000000 [K]
	Current Adsorbate-Adsorbate energy:      -15402.9638908726 [K]
	Current Cation-Cation energy:                 0.0000000000 [K]
	Current Adsorbate-Cation energy:              0.0000000000 [K]



[Equilibration] Current cycle: 6000 out of 20000
========================================================================================================

Net charge: 0 (F: 0, A: 0, C: 0)
Current Box:  59.35345   0.00000   0.00000 [A]
               0.00000  59.35345   0.00000 [A]
               0.00000   0.00000  59.35345 [A]
Box-lengths:  59.35345  59.35345  59.35345 Box-angles:   90.00000  90.00000  90.00000 [degrees]
Volume: 209092.23642 [A^3]

Amount of molecules per component:
----------------------------------------------------------------------------------------------------------------------------------------------------
Component 0 (CO2), current number of integer/fractional/reaction molecules: 174/1/0, density:  60.81450 [kg/m^3]
	Fractional molecule-id: 60, max. Lambda-change: 0.470241 (CFMC) 0.500000 (CB/CFMC)
	Lambda factors: 0.806006 0.806006 0.806006 
	Biasing Factors: 0.000000 0.430000 0.750000 1.085000 1.240000 1.530000 1.600000 1.745000 1.925000 2.015000 
	                 2.070000 2.115000 2.200000 2.320000 2.255000 2.295000 2.135000 1.920000 1.710000 1.460000 
	                 1.370000 
----------------------------------------------------------------------------------------------------------------------------------------------------
Degrees of freedom: 875 0 875 0
Number of Framework-atoms:      0
Number of Adsorbates:         175 (174 integer, 1 fractional, 0 reaction)
Number of Cations:              0 (0 integer, 0 fractional, 0 reaction)

Current total potential energy:            -23050.5875657037 [K]
	Current Host-Host energy:                     0.0000000000 [K]
	Current Host-Adsorbate energy:                0.0000000000 [K]
	Current Host-Cation energy:                   0.0000000000 [K]
	Current Adsorbate-Adsorbate energy:      -22826.4576887397 [K]
	Current Cation-Cation energy:                 0.0000000000 [K]
	Current Adsorbate-Cation energy:              0.0000000000 [K]



[Equilibration] Current cycle: 7000 out of 20000
========================================================================================================

Net charge: 0 (F: 0, A: 0, C: 0)
Current Box:  59.60672   0.00000   0.00000 [A]
               0.00000  59.60672   0.00000 [A]
               0.00000   0.00000  59.60672 [A]
Box-lengths:  59.60672  59.60672  59.60672 Box-angles:   90.00000  90.00000  90.00000 [degrees]
Volume: 211780.37365 [A^3]

Amount of molecules per component:
----------------------------------------------------------------------------------------------------------------------------------------------------
Component 0 (CO2), current number of integer/fractional/reaction molecules: 201/1/0, density:  69.35954 [kg/m^3]
	Fractional molecule-id: 167, max. Lambda-change: 0.470241 (CFMC) 0.500000 (CB/CFMC)
	Lambda factors: 0.875649 0.875649 0.875649 
	Biasing Factors: 0.000000 0.440000 0.855000 1.000000 1.200000 1.460000 1.720000 1.760000 2.015000 2.025000 
	                 2.265000 2.270000 2.450000 2.345000 2.435000 2.350000 2.270000 1.805000 1.615000 1.495000 
	                 1.350000 
----------------------------------------------------------------------------------------------------------------------------------------------------
Degrees of freedom: 1010 0 1010 0
Number of Framework-atoms:      0
Number of Adsorbates:         202 (201 integer, 1 fractional, 0 reaction)
Number of Cations:              0 (0 integer, 0 fractional, 0 reaction)

Current total potential energy:            -28200.1074042890 [K]
	Current Host-Host energy:                     0.0000000000 [K]
	Current Host-Adsorbate energy:                0.0000000000 [K]
	Current Host-Cation energy:                   0.0000000000 [K]
	Current Adsorbate-Adsorbate energy:      -27905.2727068800 [K]
	Current Cation-Cation energy:                 0.0000000000 [K]
	Current Adsorbate-Cation energy:              0.0000000000 [K]



[Equilibration] Current cycle: 8000 out of 20000
========================================================================================================

Net charge: 0 (F: 0, A: 0, C: 0)
Current Box:  59.45639   0.00000   0.00000 [A]
               0.00000  59.45639   0.00000 [A]
               0.00000   0.00000  59.45639 [A]
Box-lengths:  59.45639  59.45639  59.45639 Box-angles:   90.00000  90.00000  90.00000 [degrees]
Volume: 210182.07276 [A^3]

Amount of molecules per component:
----------------------------------------------------------------------------------------------------------------------------------------------------
Component 0 (CO2), current number of integer/fractional/reaction molecules: 176/1/0, density:  61.19456 [kg/m^3]
	Fractional molecule-id: 176, max. Lambda-change: 0.470241 (CFMC) 0.500000 (CB/CFMC)
	Lambda factors: 0.501324 0.501324 0.501324 
	Biasing Factors: 0.000000 0.390000 0.765000 1.115000 1.245000 1.410000 1.680000 1.795000 1.875000 2.060000 
	                 2.035000 2.115000 2.105000 2.245000 2.275000 2.125000 1.980000 1.940000 1.690000 1.555000 
	                 1.540000 
----------------------------------------------------------------------------------------------------------------------------------------------------
Degrees of freedom: 885 0 885 0
Number of Framework-atoms:      0
Number of Adsorbates:         177 (176 integer, 1 fractional, 0 reaction)
Number of Cations:              0 (0 integer, 0 fractional, 0 reaction)

Current total potential energy:            -24201.7806181815 [K]
	Current Host-Host energy:                     0.0000000000 [K]
	Current Host-Adsorbate energy:                0.0000000000 [K]
	Current Host-Cation energy:                   0.0000000000 [K]
	Current Adsorbate-Adsorbate energy:      -23973.6873724210 [K]
	Current Cation-Cation energy:                 0.0000000000 [K]
	Current Adsorbate-Cation energy:              0.0000000000 [K]



[Equilibration] Current cycle: 9000 out of 20000
========================================================================================================

Net charge: 0 (F: 0, A: 0, C: 0)
Current Box:  59.46789   0.00000   0.00000 [A]
               0.00000  59.46789   0.00000 [A]
               0.00000   0.00000  59.46789 [A]
Box-lengths:  59.46789  59.46789  59.46789 Box-angles:   90.00000  90.00000  90.00000 [degrees]
Volume: 210303.97981 [A^3]

Amount of molecules per component:
----------------------------------------------------------------------------------------------------------------------------------------------------
Component 0 (CO2), current number of integer/fractional/reaction molecules: 182/1/0, density:  63.24406 [kg/m^3]
	Fractional molecule-id: 182, max. Lambda-change: 0.470241 (CFMC) 0.500000 (CB/CFMC)
	Lambda factors: 0.356849 0.356849 0.356849 
	Biasing Factors: 0.000000 0.350000 0.735000 0.945000 1.230000 1.240000 1.455000 1.650000 1.790000 1.940000 
	                 1.995000 2.070000 2.185000 2.140000 2.090000 2.240000 1.985000 1.800000 1.555000 1.275000 
	                 1.345000 
----------------------------------------------------------------------------------------------------------------------------------------------------
Degrees of freedom: 915 0 915 0
Number of Framework-atoms:      0
Number of Adsorbates:         183 (182 integer, 1 fractional, 0 reaction)
Number of Cations:              0 (0 integer, 0 fractional, 0 reaction)

Current total potential energy:            -26622.5738437173 [K]
	Current Host-Host energy:                     0.0000000000 [K]
	Current Host-Adsorbate energy:                0.0000000000 [K]
	Current Host-Cation energy:                   0.0000000000 [K]
	Current Adsorbate-Adsorbate energy:      -26378.8958831580 [K]
	Current Cation-Cation energy:                 0.0000000000 [K]
	Current Adsorbate-Cation energy:              0.0000000000 [K]



[Equilibration] Current cycle: 10000 out of 20000
========================================================================================================

Net charge: 0 (F: 0, A: 0, C: 0)
Current Box:  59.38465   0.00000   0.00000 [A]
               0.00000  59.38465   0.00000 [A]
               0.00000   0.00000  59.38465 [A]
Box-lengths:  59.38465  59.38465  59.38465 Box-angles:   90.00000  90.00000  90.00000 [degrees]
Volume: 209422.18622 [A^3]

Amount of molecules per component:
----------------------------------------------------------------------------------------------------------------------------------------------------
Component 0 (CO2), current number of integer/fractional/reaction molecules: 172/1/0, density:  60.02077 [kg/m^3]
	Fractional molecule-id: 172, max. Lambda-change: 0.470241 (CFMC) 0.500000 (CB/CFMC)
	Lambda factors: 0.309108 0.309108 0.309108 
	Biasing Factors: 0.000000 0.450000 0.730000 1.005000 1.175000 1.390000 1.575000 1.700000 1.880000 1.995000 
	                 1.905000 2.170000 2.190000 2.245000 2.225000 2.225000 2.205000 1.860000 1.610000 1.260000 
	                 1.300000 
----------------------------------------------------------------------------------------------------------------------------------------------------
Degrees of freedom: 865 0 865 0
Number of Framework-atoms:      0
Number of Adsorbates:         173 (172 integer, 1 fractional, 0 reaction)
Number of Cations:              0 (0 integer, 0 fractional, 0 reaction)

Current total potential energy:            -23315.2900367268 [K]
	Current Host-Host energy:                     0.0000000000 [K]
	Current Host-Adsorbate energy:                0.0000000000 [K]
	Current Host-Cation energy:                   0.0000000000 [K]
	Current Adsorbate-Adsorbate energy:      -23096.5989511589 [K]
	Current Cation-Cation energy:                 0.0000000000 [K]
	Current Adsorbate-Cation energy:              0.0000000000 [K]



[Equilibration] Current cycle: 11000 out of 20000
========================================================================================================

Net charge: 0 (F: 0, A: 0, C: 0)
Current Box:  59.45178   0.00000   0.00000 [A]
               0.00000  59.45178   0.00000 [A]
               0.00000   0.00000  59.45178 [A]
Box-lengths:  59.45178  59.45178  59.45178 Box-angles:   90.00000  90.00000  90.00000 [degrees]
Volume: 210133.13468 [A^3]

Amount of molecules per component:
----------------------------------------------------------------------------------------------------------------------------------------------------
Component 0 (CO2), current number of integer/fractional/reaction molecules: 187/1/0, density:  65.03436 [kg/m^3]
[...]
	Average              0.00000 [K] +/-            0.00000 [K]

Average Adsorbate Intra charge-charge Coulomb energy:
=======================================
	Block[ 0]            0.00000 [K]
	Block[ 1]            0.00000 [K]
	Block[ 2]            0.00000 [K]
	Block[ 3]            0.00000 [K]
	Block[ 4]            0.00000 [K]
	------------------------------------------------------------------------------
	Average              0.00000 [K] +/-            0.00000 [K]

Average Adsorbate Intra charge-bonddipole Coulomb energy:
=======================================
	Block[ 0]            0.00000 [K]
	Block[ 1]            0.00000 [K]
	Block[ 2]            0.00000 [K]
	Block[ 3]            0.00000 [K]
	Block[ 4]            0.00000 [K]
	------------------------------------------------------------------------------
	Average              0.00000 [K] +/-            0.00000 [K]

Average Adsorbate Intra bonddipole-bonddipole Coulomb energy:
=======================================
	Block[ 0]            0.00000 [K]
	Block[ 1]            0.00000 [K]
	Block[ 2]            0.00000 [K]
	Block[ 3]            0.00000 [K]
	Block[ 4]            0.00000 [K]
	------------------------------------------------------------------------------
	Average              0.00000 [K] +/-            0.00000 [K]

Average Cation Bond stretch energy:
=================================
	Block[ 0]            0.00000 [K]
	Block[ 1]            0.00000 [K]
	Block[ 2]            0.00000 [K]
	Block[ 3]            0.00000 [K]
	Block[ 4]            0.00000 [K]
	------------------------------------------------------------------------------
	Average              0.00000 [K] +/-            0.00000 [K]

Average Cation UreyBradley stretch energy:
==========================================
	Block[ 0]            0.00000 [K]
	Block[ 1]            0.00000 [K]
	Block[ 2]            0.00000 [K]
	Block[ 3]            0.00000 [K]
	Block[ 4]            0.00000 [K]
	------------------------------------------------------------------------------
	Average              0.00000 [K] +/-            0.00000 [K]

Average Cation Bend angle energy:
=================================
	Block[ 0]            0.00000 [K]
	Block[ 1]            0.00000 [K]
	Block[ 2]            0.00000 [K]
	Block[ 3]            0.00000 [K]
	Block[ 4]            0.00000 [K]
	------------------------------------------------------------------------------
	Average              0.00000 [K] +/-            0.00000 [K]

Average Cation Bend angle inversion energy:
===========================================
	Block[ 0]            0.00000 [K]
	Block[ 1]            0.00000 [K]
	Block[ 2]            0.00000 [K]
	Block[ 3]            0.00000 [K]
	Block[ 4]            0.00000 [K]
	------------------------------------------------------------------------------
	Average              0.00000 [K] +/-            0.00000 [K]

Average Cation Torsion energy:
==============================
	Block[ 0]            0.00000 [K]
	Block[ 1]            0.00000 [K]
	Block[ 2]            0.00000 [K]
	Block[ 3]            0.00000 [K]
	Block[ 4]            0.00000 [K]
	------------------------------------------------------------------------------
	Average              0.00000 [K] +/-            0.00000 [K]

Average Cation Improper Torsion energy:
=======================================
	Block[ 0]            0.00000 [K]
	Block[ 1]            0.00000 [K]
	Block[ 2]            0.00000 [K]
	Block[ 3]            0.00000 [K]
	Block[ 4]            0.00000 [K]
	------------------------------------------------------------------------------
	Average              0.00000 [K] +/-            0.00000 [K]

Average Cation Bond-Bond cross term energy:
=================================================
	Block[ 0]            0.00000 [K]
	Block[ 1]            0.00000 [K]
	Block[ 2]            0.00000 [K]
	Block[ 3]            0.00000 [K]
	Block[ 4]            0.00000 [K]
	------------------------------------------------------------------------------
	Average              0.00000 [K] +/-            0.00000 [K]

Average Cation Bend-Bend cross term energy:
===========================================
	Block[ 0]            0.00000 [K]
	Block[ 1]            0.00000 [K]
	Block[ 2]            0.00000 [K]
	Block[ 3]            0.00000 [K]
	Block[ 4]            0.00000 [K]
	------------------------------------------------------------------------------
	Average              0.00000 [K] +/-            0.00000 [K]

Average Cation Bond-Bend cross term energy:
==============================================
	Block[ 0]            0.00000 [K]
	Block[ 1]            0.00000 [K]
	Block[ 2]            0.00000 [K]
	Block[ 3]            0.00000 [K]
	Block[ 4]            0.00000 [K]
	------------------------------------------------------------------------------
	Average              0.00000 [K] +/-            0.00000 [K]

Average Cation Bond-Torsion cross term energy:
==============================================
	Block[ 0]            0.00000 [K]
	Block[ 1]            0.00000 [K]
	Block[ 2]            0.00000 [K]
	Block[ 3]            0.00000 [K]
	Block[ 4]            0.00000 [K]
	------------------------------------------------------------------------------
	Average              0.00000 [K] +/-            0.00000 [K]

Average Cation Bend-Torsion cross term energy:
==============================================
	Block[ 0]            0.00000 [K]
	Block[ 1]            0.00000 [K]
	Block[ 2]            0.00000 [K]
	Block[ 3]            0.00000 [K]
	Block[ 4]            0.00000 [K]
	------------------------------------------------------------------------------
	Average              0.00000 [K] +/-            0.00000 [K]

Average Cation Intra Van der Waals energy:
==========================================
	Block[ 0]            0.00000 [K]
	Block[ 1]            0.00000 [K]
	Block[ 2]            0.00000 [K]
	Block[ 3]            0.00000 [K]
	Block[ 4]            0.00000 [K]
	------------------------------------------------------------------------------
	Average              0.00000 [K] +/-            0.00000 [K]

Average Cation Intra charge-charge Coulomb energy:
====================================
	Block[ 0]            0.00000 [K]
	Block[ 1]            0.00000 [K]
	Block[ 2]            0.00000 [K]
	Block[ 3]            0.00000 [K]
	Block[ 4]            0.00000 [K]
	------------------------------------------------------------------------------
	Average              0.00000 [K] +/-            0.00000 [K]

Average Cation Intra charge-bonddipole Coulomb energy:
====================================
	Block[ 0]            0.00000 [K]
	Block[ 1]            0.00000 [K]
	Block[ 2]            0.00000 [K]
	Block[ 3]            0.00000 [K]
	Block[ 4]            0.00000 [K]
	------------------------------------------------------------------------------
	Average              0.00000 [K] +/-            0.00000 [K]

Average Cation Intra bonddipole-bonddipole Coulomb energy:
====================================
	Block[ 0]            0.00000 [K]
	Block[ 1]            0.00000 [K]
	Block[ 2]            0.00000 [K]
	Block[ 3]            0.00000 [K]
	Block[ 4]            0.00000 [K]
	------------------------------------------------------------------------------
	Average              0.00000 [K] +/-            0.00000 [K]

Average Host-Host energy:
=========================
	Block[ 0] 0.00000            Van der Waals: 0.00000            Coulomb: 0.00000            [K]
	Block[ 1] 0.00000            Van der Waals: 0.00000            Coulomb: 0.00000            [K]
	Block[ 2] 0.00000            Van der Waals: 0.00000            Coulomb: 0.00000            [K]
	Block[ 3] 0.00000            Van der Waals: 0.00000            Coulomb: 0.00000            [K]
	Block[ 4] 0.00000            Van der Waals: 0.00000            Coulomb: 0.00000            [K]
	------------------------------------------------------------------------------
	Average   0.00000            Van der Waals: 0.000000           Coulomb: 0.00000            [K]
	      +/- 0.00000                       +/- 0.000000                +/- 0.00000            [K]

Average Adsorbate-Adsorbate energy:
===================================
	Block[ 0] -16618.71967       Van der Waals: -12462.55997       Coulomb: -4156.15970        [K]
	Block[ 1] -23355.66565       Van der Waals: -17501.38730       Coulomb: -5854.27835        [K]
	Block[ 2] -24702.73946       Van der Waals: -18503.98362       Coulomb: -6198.75584        [K]
	Block[ 3] -19125.52335       Van der Waals: -14315.39639       Coulomb: -4810.12695        [K]
	Block[ 4] -19538.44498       Van der Waals: -14640.68558       Coulomb: -4897.75940        [K]
	------------------------------------------------------------------------------
	Average   -20668.21862       Van der Waals: -15484.802571      Coulomb: -5183.41605        [K]
	      +/- 5902.84466                    +/- 4417.787939             +/- 1485.17236         [K]

Average Cation-Cation energy:
=============================
	Block[ 0] 0.00000            Van der Waals: 0.00000            Coulomb: 0.00000            [K]
	Block[ 1] 0.00000            Van der Waals: 0.00000            Coulomb: 0.00000            [K]
	Block[ 2] 0.00000            Van der Waals: 0.00000            Coulomb: 0.00000            [K]
	Block[ 3] 0.00000            Van der Waals: 0.00000            Coulomb: 0.00000            [K]
	Block[ 4] 0.00000            Van der Waals: 0.00000            Coulomb: 0.00000            [K]
	------------------------------------------------------------------------------
	Average   0.00000            Van der Waals: 0.000000           Coulomb: 0.00000            [K]
	      +/- 0.00000                       +/- 0.000000                +/- 0.00000            [K]

Average Host-Adsorbate energy:
==============================
	Block[ 0] 0.00000            Van der Waals: 0.00000            Coulomb: 0.00000            [K]
	Block[ 1] 0.00000            Van der Waals: 0.00000            Coulomb: 0.00000            [K]
	Block[ 2] 0.00000            Van der Waals: 0.00000            Coulomb: 0.00000            [K]
	Block[ 3] 0.00000            Van der Waals: 0.00000            Coulomb: 0.00000            [K]
	Block[ 4] 0.00000            Van der Waals: 0.00000            Coulomb: 0.00000            [K]
	------------------------------------------------------------------------------
	Average   0.00000            Van der Waals: 0.000000           Coulomb: 0.00000            [K]
	      +/- 0.00000                       +/- 0.000000                +/- 0.00000            [K]

Average Host-Cation energy:
===========================
	Block[ 0] 0.00000            Van der Waals: 0.00000            Coulomb: 0.00000            [K]
	Block[ 1] 0.00000            Van der Waals: 0.00000            Coulomb: 0.00000            [K]
	Block[ 2] 0.00000            Van der Waals: 0.00000            Coulomb: 0.00000            [K]
	Block[ 3] 0.00000            Van der Waals: 0.00000            Coulomb: 0.00000            [K]
	Block[ 4] 0.00000            Van der Waals: 0.00000            Coulomb: 0.00000            [K]
	------------------------------------------------------------------------------
	Average   0.00000            Van der Waals: 0.000000           Coulomb: 0.00000            [K]
	      +/- 0.00000                       +/- 0.000000                +/- 0.00000            [K]

Average Adsorbate-Cation energy:
================================
	Block[ 0] 0.00000            Van der Waals: 0.00000            Coulomb: 0.00000            [K]
	Block[ 1] 0.00000            Van der Waals: 0.00000            Coulomb: 0.00000            [K]
	Block[ 2] 0.00000            Van der Waals: 0.00000            Coulomb: 0.00000            [K]
	Block[ 3] 0.00000            Van der Waals: 0.00000            Coulomb: 0.00000            [K]
	Block[ 4] 0.00000            Van der Waals: 0.00000            Coulomb: 0.00000            [K]
	------------------------------------------------------------------------------
	Average   0.00000            Van der Waals: 0.000000           Coulomb: 0.00000            [K]
	      +/- 0.00000                       +/- 0.000000                +/- 0.00000            [K]

Host polarization energy:
=======================
	Block[ 0]            0.00000 [K]
	Block[ 1]            0.00000 [K]
	Block[ 2]            0.00000 [K]
	Block[ 3]            0.00000 [K]
	Block[ 4]            0.00000 [K]
	------------------------------------------------------------------------------
	Average              0.00000 [K] +/-            0.00000 [K]

Adsorbate polarization energy:
=======================
	Block[ 0]            0.00000 [K]
	Block[ 1]            0.00000 [K]
	Block[ 2]            0.00000 [K]
	Block[ 3]            0.00000 [K]
	Block[ 4]            0.00000 [K]
	------------------------------------------------------------------------------
	Average              0.00000 [K] +/-            0.00000 [K]

Cation polarization energy:
=======================
	Block[ 0]            0.00000 [K]
	Block[ 1]            0.00000 [K]
	Block[ 2]            0.00000 [K]
	Block[ 3]            0.00000 [K]
	Block[ 4]            0.00000 [K]
	------------------------------------------------------------------------------
	Average              0.00000 [K] +/-            0.00000 [K]

Host back-polarization energy:
=======================
	Block[ 0]            0.00000 [K]
	Block[ 1]            0.00000 [K]
	Block[ 2]            0.00000 [K]
	Block[ 3]            0.00000 [K]
	Block[ 4]            0.00000 [K]
	------------------------------------------------------------------------------
	Average              0.00000 [K] +/-            0.00000 [K]

Adsorbate back-polarization energy:
=======================
	Block[ 0]            0.00000 [K]
	Block[ 1]            0.00000 [K]
	Block[ 2]            0.00000 [K]
	Block[ 3]            0.00000 [K]
	Block[ 4]            0.00000 [K]
	------------------------------------------------------------------------------
	Average              0.00000 [K] +/-            0.00000 [K]

Cation back-polarization energy:
=======================
	Block[ 0]            0.00000 [K]
	Block[ 1]            0.00000 [K]
	Block[ 2]            0.00000 [K]
	Block[ 3]            0.00000 [K]
	Block[ 4]            0.00000 [K]
	------------------------------------------------------------------------------
	Average              0.00000 [K] +/-            0.00000 [K]

Tail-correction energy:
=======================
	Block[ 0]         -176.37274 [K]
	Block[ 1]         -246.03400 [K]
	Block[ 2]         -257.58441 [K]
	Block[ 3]         -200.12670 [K]
	Block[ 4]         -205.89033 [K]
	------------------------------------------------------------------------------
	Average           -217.20164 [K] +/-           60.32295 [K]

Distance-constraints energy:
=======================
	Block[ 0]            0.00000 [K]
	Block[ 1]            0.00000 [K]
	Block[ 2]            0.00000 [K]
	Block[ 3]            0.00000 [K]
	Block[ 4]            0.00000 [K]
	------------------------------------------------------------------------------
	Average              0.00000 [K] +/-            0.00000 [K]

Angle-constraints energy:
=======================
	Block[ 0]            0.00000 [K]
	Block[ 1]            0.00000 [K]
	Block[ 2]            0.00000 [K]
	Block[ 3]            0.00000 [K]
	Block[ 4]            0.00000 [K]
	------------------------------------------------------------------------------
	Average              0.00000 [K] +/-            0.00000 [K]

Dihedral-constraints energy:
=======================
	Block[ 0]            0.00000 [K]
	Block[ 1]            0.00000 [K]
	Block[ 2]            0.00000 [K]
	Block[ 3]            0.00000 [K]
	Block[ 4]            0.00000 [K]
	------------------------------------------------------------------------------
	Average              0.00000 [K] +/-            0.00000 [K]

Inversion-bend constraints energy:
=======================
	Block[ 0]            0.00000 [K]
	Block[ 1]            0.00000 [K]
	Block[ 2]            0.00000 [K]
	Block[ 3]            0.00000 [K]
	Block[ 4]            0.00000 [K]
	------------------------------------------------------------------------------
	Average              0.00000 [K] +/-            0.00000 [K]

Out-of-plane-distance constraints energy:
=======================
	Block[ 0]            0.00000 [K]
	Block[ 1]            0.00000 [K]
	Block[ 2]            0.00000 [K]
	Block[ 3]            0.00000 [K]
	Block[ 4]            0.00000 [K]
	------------------------------------------------------------------------------
	Average              0.00000 [K] +/-            0.00000 [K]

Exclusion-constraints energy:
=======================
	Block[ 0]            0.00000 [K]
	Block[ 1]            0.00000 [K]
	Block[ 2]            0.00000 [K]
	Block[ 3]            0.00000 [K]
	Block[ 4]            0.00000 [K]
	------------------------------------------------------------------------------
	Average              0.00000 [K] +/-            0.00000 [K]

Total energy:
=============
	Block[ 0]       -16795.09240 [K]
	Block[ 1]       -23601.69965 [K]
	Block[ 2]       -24960.32387 [K]
	Block[ 3]       -19325.65004 [K]
	Block[ 4]       -19744.33531 [K]
	------------------------------------------------------------------------------
	Average         -20885.42026 [K] +/-         5963.13697 [K]

Number of molecules:
====================

Component 0 [CO2]
-------------------------------------------------------------
	Block[ 0] 153.50440          [-]
	Block[ 1] 182.79010          [-]
	Block[ 2] 186.95990          [-]
	Block[ 3] 164.01020          [-]
	Block[ 4] 166.16980          [-]
	------------------------------------------------------------------------------
	Average                                    170.6868800000 +/-      24.8438129246 [-]
	Average loading absolute [molecules/unit cell]      170.6868800000 +/-      24.8438129246 [-]
	Average loading absolute [mol/kg framework]                   inf +/-                inf [-]
	Average loading absolute [milligram/gram framework]                   inf +/-                inf [-]
	Average loading absolute [cm^3 (STP)/gr framework]                   inf +/-                inf [-]
	Average loading absolute [cm^3 (STP)/cm^3 framework]         29.4113050125 +/-       4.2808736067 [-]

	Block[ 0] 153.50440          [-]
	Block[ 1] 182.79010          [-]
	Block[ 2] 186.95990          [-]
	Block[ 3] 164.01020          [-]
	Block[ 4] 166.16980          [-]
	------------------------------------------------------------------------------
	Average                                    170.6868800000 +/-      24.8438129246 [-]
	Average loading excess [molecules/unit cell]      170.6868800000 +/-      24.8438129246 [-]
	Average loading excess [mol/kg framework]                   inf +/-                inf [-]
	Average loading excess [milligram/gram framework]                   inf +/-                inf [-]
	Average loading excess [cm^3 (STP)/gr framework]                   inf +/-                inf [-]
	Average loading excess [cm^3 (STP)/cm^3 framework]         29.4113050125 +/-       4.2808736067 [-]


Average Widom Rosenbluth factor:
================================
	Block[ 0] 0 [-]
	Block[ 1] 0 [-]
	Block[ 2] 0 [-]
	Block[ 3] 0 [-]
	Block[ 4] 0 [-]
	------------------------------------------------------------------------------
	[CO2] Average Widom:   0 +/- 0.000000 [-]

Average Henry coefficient:
==========================
	Block[ 0] 0 [mol/kg/Pa]
	Block[ 1] 0 [mol/kg/Pa]
	Block[ 2] 0 [mol/kg/Pa]
	Block[ 3] 0 [mol/kg/Pa]
	Block[ 4] 0 [mol/kg/Pa]
	------------------------------------------------------------------------------
	[CO2] Average Henry coefficient:  0 +/- 0 [mol/kg/Pa]

Average adsorption energy <U_gh>_1-<U_h>_0 obtained from Widom-insertion:
(Note: the total heat of adsorption is dH=<U_gh>_1-<U_h>_0 - <U_g> - RT)
=========================================================================

Simulation finished,  0 warnings


Tue Dec  2 05:40:17 2014
Simulation finished on Tuesday, December 02.
The end time was 05:40 AM.

