Compiler and run-time data
===========================================================================
RASPA 2.0.45
Compiled as a 64-bits application
Compiler: gcc Apple LLVM 12.0.5 (clang-1205.0.22.9)
Compile Date = May 18 2021, Compile Time = 12:54:12

Tue May 18 19:09:58 2021
Simulation started on Tuesday, May 18.
The start time was 07:09 PM.

Cpu data:    x86_64
Cpu Model:   MacPro7,1
Host name:   MacPro.local
OS release:  20.4.0
OS type:     Darwin
OS version:  20E232


Simulation
===========================================================================
Dimensions: 3
Random number seed: 1621357798
RASPA directory set to: /Users/dubbelda/RASPA/simulations/
String appended to output-files: 
Number of cycles: 1000000
Number of initializing cycles: 100
Number of equilibration cycles: 10000
Print every: 5000
Triclinic boundary condition applied
Timestep: 0.000500
Initialization Ensemble: NVT (constant number of particles N, constant volume V, constant average temperature T)
Production run ensemble: NVT (constant number of particles N, constant volume V, constant average temperature T)
	Degrees of freedom:                        2088
	Translational Degrees of freedom:          2040
	Rotational Degrees of freedom:             48
	Degrees of freedom Framework:              1992


Mutual consistent basic set of units:
======================================
Unit of temperature: Kelvin
Unit of length:      1e-10 [m]
Unit of time:        1e-12 [s]
Unit of mass:        1.66054e-27 [kg]
Unit of charge:      1.60218e-19 [C/particle]

Derived units and their conversion factors:
===========================================
Unit of energy:              1.66054e-23 [J]
Unit of force:               1.66054e-13 [N]
Unit of pressure:            1.66054e+07 [Pa]
Unit of velocity:            100 [m/s]
Unit of acceleration:        1e-08 [m^2/s]
Unit of diffusion:           1e-08 [m^2/s]
Unit of dipole moment:       1.60218e-29 [C.m]
Unit of electric potential:  0.000103643 [V]
Unit of electric field:      1.03643e+06 [V]
Unit of polarizability:      1.54587e-35 [-]
Unit of Coulomb potential:   167101.0800066561  [K]
Unit of dielectric constant: 0.0000154587       [s^2 C^2/(kg m^3)]
Unit of wave vectors:        5.3088374589       [cm^1]
Boltzmann constant:          0.8314464919       [-]

Internal conversion factors:
===========================================
Energy to Kelvin:                                    1.2027242847
FH correction factor                                 2.0211930949
Heat capacity conversion factor:                    10.0000088723
From Debye to internal units:                        4.8032067991
Isothermal compressibility conversion factor:        0.0000000602

Energy conversion factors:
===========================================
From mdyne/A to kcal/mol/A^2:           143.933
From mdyne/A to kj/mol/A^2:             602.214
From mdyne/A to K/A^2:                  72429.7
From mdyne A/rad^2 to kcal/mol/deg^2:   0.0438444


Properties computed
===========================================================================
Movies: no
Radial Distribution Function: no
Number of molecules GCMC histogram: no
Histogram of the molecule positions: no
Free energy profiles: no
Pore Size Distribution Function: no
End-to-end distance: no
Histogram of the energy of the system: no
Compute thermodynamic factors: no
Framework spacing histograms: no
Residence times histograms: no
Distance histograms: no
Bend Angle histograms: no
Dihedral angle histograms: no
Angle between planes histograms: no
Molecule properties: no
Infra-red spectra: no
Mean-squared displacement using modified order-N algorithm: no
Velocity-autocorrelation function modified order-N algorithm: no
Rotational velocity-autocorrelation function modified order-N algorithm: no
Molecular orientation-autocorrelation function modified order-N algorithm: no
Bond orientation-autocorrelation function modified order-N algorithm: no
Mean-squared displacement (conventional algorithm): no
Velocity-autocorrelation function (conventional algorithm): no
3D density grid for adsorbates: no
Compute cation an/or adsorption sites: no
dcTST snapshots: no
Compute pressure and stress: no


VTK
===========================================================================
VTK fractional-range position framework atoms: [-0.001000,1.001000] [-0.001000,1.001000] [-0.001000,1.001000]
VTK fractional-range position framework bonds: [-0.151000,1.151000] [-0.151000,1.151000] [-0.151000,1.151000]
VTK fractional-range com-position adsorbate molecules: [-0.101000,1.101000] [-0.101000,1.101000] [-0.101000,1.101000]
VTK fractional-range com-position cation molecules: [-0.101000,1.101000] [-0.101000,1.101000] [-0.101000,1.101000]
	3D free energy grid made for the full simulation-cell


Thermo/Baro-stat NHC parameters
===========================================================================
External temperature: 298 [K]
Beta: 0.00403598 [energy unit]
External Pressure: 0 [Pa]


Thermostat chain-length: 3
Timescale parameter for thermostat: 0.150000 [ps]
Barostat chain-length:   3
Timescale parameter for barostat:   0.150000 [ps]

Number of Yoshida-Suzuki decomposition steps: 5
Number of respa steps: 5


Method and settings for electrostatics
===============================================================================
Dielectric constant of the medium : 1.000000
Charge from charge-equilibration: no
Ewald summation is used (exact solution of a periodic system)
Relative precision                : 1e-06
Alpha convergence parameter       : 0.265058
kvec (x,y,z)                      : 9 9 9


CFC-RXMC parameters
===========================================================================
Number of reactions: 0


Rattle parameters
===========================================================================
Distance constraint type: r^2-r^2_0
Bend angle constraint type: theta-theta_0
Dihedral angle constraint type: phi-phi_0
Inversion-bend angle constraint type: chi-chi_0
Out-of-plane distance constraint type: r-r_0


Spectra parameters
===========================================================================
Compute normal modes: no


Minimization parameters
===========================================================================
Generalized coordinates are: Cartesian center-of-mass, elements of the orientational matrix p1,p2,p3 and strain
Potential derivatives are evaluated: analytically
Translation of the system is removed from the generalized Hessian: no
Rotation of the system is removed from the generalized Hessian: no
Maximum step-length: 0.3
Convergence factor: 1
Maximum number of minimization steps: 10000
Use gradients in the line-minimizations: yes
RMS gradient tolerance: 1e-06
Maximum gradient tolerance: 1e-06

Distance constraints: 0
Angle constraints: 0
Dihedral constraints: 0

Improper dihedral constraints: 0

Inversion-bend constraints: 0

Out-of-plane constraints: 0

Harmonic distance constraints: 0
Harmonic angle constraints: 0
Harmonic dihedral constraints: 0

Dihedral mid-point measurements: 0

Number of fixed framework atoms: 0  (active: 664)
fixed atom-list: 
Number of active framework atoms: 664  (fixed: 0)
active atom-list: 

Fixed adsorbate atoms:  
Fixed adsorbate groups (center-of-mass):  
Fixed adsorbate groups (orientation):  

Fixed cation atoms:  
Fixed cation groups (center-of-mass):  
Fixed cation groups (orientation):  


dcTST parameters
===========================================================================
Free energy profiles computed: no
Free energy profiles written every 5000 cycles
Free energy mapping: mapped to a,b,c-coordinates
BarrierPosition:       0.0000000000       0.0000000000       0.0000000000
BarrierNormal:         0.0000000000       0.0000000000       0.0000000000
Start with a molecule on top of the barrier: no
Maximum distance to barrier (e.g. distance to minumum free energy):       0.0000000000 [A]
Maximum trajectory time:      10.0000000000 [ps]
Each configuration is used with 5 different initial velocities


Cbmc parameters
===========================================================================
Biasing method: using only the VDW part
Number of trial positions:                                       10
Number of trial positions (reinsertion):                         10
Number of trial positions (partial reinsertion):                 10
Number of trial positions (identity-change):                     10
Number of trial positions (Gibbs particle transfer):             10
Number of trial positions (insertion/deletion):                  10
Number of trial positions (Widom insertion):                     10
Number of trial positions coupled Torsion-selection:             100
Number of trial positions first bead:                            10
Number of trial positions first bead (reinsertion):              10
Number of trial positions first bead (partial reinsertion):      10
Number of trial positions first bead (identity-change):          10
Number of trial positions first bead (Gibbs particle transfer):  10
Number of trial positions first bead (insertion/deletion):       10
Number of trial positions first bead (Widom insertion):          10
Number of trial moves per open bead:                             150
Target acceptance ratio small-mc scheme:                         0.400000
Energy overlap criteria:                                         1e+07
Minimal Rosenbluth factor:                                       1e-150


Pseudo atoms: 13
===========================================================================
Pseudo Atom[   0] Name UNIT     Oxidation:          Element: H    pdb-name: H    Scat. Types:   1   1 Mass=1.000000000  B-factor:0.000   
                 Charge=1.000000000          Polarization=0.000000000  [A^3] (considered a charged atom and no polarization)  Interactions: yes
                 Anisotropic factor:    0.000 [-] (Absolute), Radius:    1.000 [A], Framework-atom:  no
Pseudo Atom[   1] Name Zn1      Oxidation: +0       Element: Zn   pdb-name: Zn   Scat. Types:  31  30 Mass=65.370000000 B-factor:1.000   
                 Charge=1.275000000          Polarization=0.000000000  [A^3] (considered a charged atom and no polarization)  Interactions: yes
                 Anisotropic factor:    0.000 [-] (Relative), Radius:    1.448 [A], Framework-atom: yes (charge from pseudo-atoms file)
Pseudo Atom[   2] Name O1       Oxidation: +0       Element: O    pdb-name: O    Scat. Types:   9   8 Mass=15.999400000 B-factor:1.000   
                 Charge=-1.500000000         Polarization=0.000000000  [A^3] (considered a charged atom and no polarization)  Interactions: yes
                 Anisotropic factor:    0.000 [-] (Relative), Radius:    0.680 [A], Framework-atom: yes (charge from pseudo-atoms file)
Pseudo Atom[   3] Name O2       Oxidation: +0       Element: O    pdb-name: O    Scat. Types:   9   8 Mass=15.999400000 B-factor:1.000   
                 Charge=-0.600000000         Polarization=0.000000000  [A^3] (considered a charged atom and no polarization)  Interactions: yes
                 Anisotropic factor:    0.000 [-] (Relative), Radius:    0.680 [A], Framework-atom: yes (charge from pseudo-atoms file)
Pseudo Atom[   4] Name C1       Oxidation: +0       Element: C    pdb-name: C    Scat. Types:   7   6 Mass=12.010700000 B-factor:1.000   
                 Charge=0.475000000          Polarization=0.000000000  [A^3] (considered a charged atom and no polarization)  Interactions: yes
                 Anisotropic factor:    0.000 [-] (Relative), Radius:    0.720 [A], Framework-atom: yes (charge from pseudo-atoms file)
Pseudo Atom[   5] Name C2       Oxidation: +0       Element: C    pdb-name: C    Scat. Types:   7   6 Mass=12.010700000 B-factor:1.000   
                 Charge=0.125000000          Polarization=0.000000000  [A^3] (considered a charged atom and no polarization)  Interactions: yes
                 Anisotropic factor:    0.000 [-] (Relative), Radius:    0.720 [A], Framework-atom: yes (charge from pseudo-atoms file)
Pseudo Atom[   6] Name C3       Oxidation: +0       Element: C    pdb-name: C    Scat. Types:   7   6 Mass=12.010700000 B-factor:1.000   
                 Charge=-0.150000000         Polarization=0.000000000  [A^3] (considered a charged atom and no polarization)  Interactions: yes
                 Anisotropic factor:    0.000 [-] (Relative), Radius:    0.720 [A], Framework-atom: yes (charge from pseudo-atoms file)
Pseudo Atom[   7] Name C4       Oxidation: +0       Element: C    pdb-name: C    Scat. Types:   7   6 Mass=12.010700000 B-factor:1.000   
                 Charge=-0.150000000         Polarization=0.000000000  [A^3] (considered a charged atom and no polarization)  Interactions: yes
                 Anisotropic factor:    0.000 [-] (Relative), Radius:    0.720 [A], Framework-atom: yes (charge from pseudo-atoms file)
Pseudo Atom[   8] Name C5       Oxidation: +0       Element: C    pdb-name: C    Scat. Types:   7   6 Mass=12.010700000 B-factor:1.000   
                 Charge=0.000000000          Polarization=0.000000000  [A^3] (considered a charged atom and no polarization)  Interactions: yes
                 Anisotropic factor:    0.000 [-] (Relative), Radius:    0.720 [A], Framework-atom: yes (charge from pseudo-atoms file)
Pseudo Atom[   9] Name H1       Oxidation: +0       Element: H    pdb-name: H    Scat. Types:   1   1 Mass=1.007940000  B-factor:1.000   
                 Charge=0.150000000          Polarization=0.000000000  [A^3] (considered a charged atom and no polarization)  Interactions: yes
                 Anisotropic factor:    0.000 [-] (Relative), Radius:    0.320 [A], Framework-atom: yes (charge from pseudo-atoms file)
Pseudo Atom[  10] Name H2       Oxidation: +0       Element: H    pdb-name: H    Scat. Types:   1   1 Mass=1.007940000  B-factor:1.000   
                 Charge=0.150000000          Polarization=0.000000000  [A^3] (considered a charged atom and no polarization)  Interactions: yes
                 Anisotropic factor:    0.000 [-] (Relative), Radius:    0.320 [A], Framework-atom: yes (charge from pseudo-atoms file)
Pseudo Atom[  11] Name C_benz   Oxidation: +0       Element: C    pdb-name: C    Scat. Types:   7   6 Mass=12.000000000 B-factor:1.000   
                 Charge=-0.095000000         Polarization=0.000000000  [A^3] (considered a charged atom and no polarization)  Interactions: yes
                 Anisotropic factor:    0.000 [-] (Relative), Radius:    0.700 [A], Framework-atom:  no
Pseudo Atom[  12] Name H_benz   Oxidation: +0       Element: H    pdb-name: H    Scat. Types:   1   1 Mass=1.007940000  B-factor:1.000   
                 Charge=0.095000000          Polarization=0.000000000  [A^3] (considered a charged atom and no polarization)  Interactions: yes
                 Anisotropic factor:    0.000 [-] (Relative), Radius:    0.320 [A], Framework-atom:  no


Forcefield: Local
===========================================================================
Minimal distance: 1
CutOff VDW : 12.000000 (144.000000)
CutOff VDW switching on: 10.800000 (116.640000)
CutOff charge-charge : 12.000000 (144.000000)
CutOff charge-charge switching on: 7.800000 (60.840000)
CutOff charge-bonddipole : 12.000000 (144.000000)
CutOff charge-bondipole switching on: 8.400000 (70.560000)
CutOff bonddipole-bonddipole : 12.000000 (144.000000)
CutOff bonddipole-bondipole switching on: 9.000000 (81.000000)
Polarization is neglected
All potentials are shifted to zero at the Cutoff

General mixing rule: Lorentz-Berthelot mixing rules are used FIRST for cross terms
0 cross terms are overwritten using the individual mixing rules from the file 'force_field_mixing_rules.def'
and then 0 terms are overwritten using the specific interactions from the file 'force_field.def'

The force field and all the interactions:
    Zn1 -     Zn1 [LENNARD_JONES] p_0/k_B:   0.42000 [K], p_1: 2.70000 [A], shift/k_B:  -0.00021795 [K], tailcorrection: no
    Zn1 -      O1 [LENNARD_JONES] p_0/k_B:  17.14643 [K], p_1: 2.84000 [A], shift/k_B:  -0.01204980 [K], tailcorrection: no
    Zn1 -      O2 [LENNARD_JONES] p_0/k_B:   5.44151 [K], p_1: 2.90500 [A], shift/k_B:  -0.00438007 [K], tailcorrection: no
    Zn1 -      C1 [LENNARD_JONES] p_0/k_B:   4.44297 [K], p_1: 3.22000 [A], shift/k_B:  -0.00663161 [K], tailcorrection: no
    Zn1 -      C2 [LENNARD_JONES] p_0/k_B:   4.48344 [K], p_1: 3.08500 [A], shift/k_B:  -0.00517594 [K], tailcorrection: no
    Zn1 -      C3 [LENNARD_JONES] p_0/k_B:   4.48344 [K], p_1: 3.08500 [A], shift/k_B:  -0.00517594 [K], tailcorrection: no
    Zn1 -      C4 [LENNARD_JONES] p_0/k_B:   4.48344 [K], p_1: 3.08500 [A], shift/k_B:  -0.00517594 [K], tailcorrection: no
    Zn1 -      C5 [LENNARD_JONES] p_0/k_B:   4.48344 [K], p_1: 3.08500 [A], shift/k_B:  -0.00517594 [K], tailcorrection: no
    Zn1 -      H1 [LENNARD_JONES] p_0/k_B:   1.79248 [K], p_1: 2.77500 [A], shift/k_B:  -0.00109633 [K], tailcorrection: no
    Zn1 -      H2 [LENNARD_JONES] p_0/k_B:   1.79248 [K], p_1: 2.77500 [A], shift/k_B:  -0.00109633 [K], tailcorrection: no
    Zn1 -  C_benz [LENNARD_JONES] p_0/k_B:   3.59082 [K], p_1: 3.15000 [A], shift/k_B:  -0.00469772 [K], tailcorrection: no
    Zn1 -  H_benz [LENNARD_JONES] p_0/k_B:   3.26940 [K], p_1: 2.53000 [A], shift/k_B:  -0.00114849 [K], tailcorrection: no
     O1 -      O1 [LENNARD_JONES] p_0/k_B: 700.00000 [K], p_1: 2.98000 [A], shift/k_B:  -0.65654768 [K], tailcorrection: no
     O1 -      O2 [LENNARD_JONES] p_0/k_B: 222.14860 [K], p_1: 3.04500 [A], shift/k_B:  -0.23715043 [K], tailcorrection: no
     O1 -      C1 [LENNARD_JONES] p_0/k_B: 181.38357 [K], p_1: 3.36000 [A], shift/k_B:  -0.34945946 [K], tailcorrection: no
     O1 -      C2 [LENNARD_JONES] p_0/k_B: 183.03552 [K], p_1: 3.22500 [A], shift/k_B:  -0.27575445 [K], tailcorrection: no
     O1 -      C3 [LENNARD_JONES] p_0/k_B: 183.03552 [K], p_1: 3.22500 [A], shift/k_B:  -0.27575445 [K], tailcorrection: no
     O1 -      C4 [LENNARD_JONES] p_0/k_B: 183.03552 [K], p_1: 3.22500 [A], shift/k_B:  -0.27575445 [K], tailcorrection: no
     O1 -      C5 [LENNARD_JONES] p_0/k_B: 183.03552 [K], p_1: 3.22500 [A], shift/k_B:  -0.27575445 [K], tailcorrection: no
     O1 -      H1 [LENNARD_JONES] p_0/k_B:  73.17787 [K], p_1: 2.91500 [A], shift/k_B:  -0.06013044 [K], tailcorrection: no
     O1 -      H2 [LENNARD_JONES] p_0/k_B:  73.17787 [K], p_1: 2.91500 [A], shift/k_B:  -0.06013044 [K], tailcorrection: no
     O1 -  C_benz [LENNARD_JONES] p_0/k_B: 146.59468 [K], p_1: 3.29000 [A], shift/k_B:  -0.24893251 [K], tailcorrection: no
     O1 -  H_benz [LENNARD_JONES] p_0/k_B: 133.47284 [K], p_1: 2.67000 [A], shift/k_B:  -0.06477095 [K], tailcorrection: no
     O2 -      O2 [LENNARD_JONES] p_0/k_B:  70.50000 [K], p_1: 3.11000 [A], shift/k_B:  -0.08542645 [K], tailcorrection: no
     O2 -      C1 [LENNARD_JONES] p_0/k_B:  57.56301 [K], p_1: 3.42500 [A], shift/k_B:  -0.12440694 [K], tailcorrection: no
     O2 -      C2 [LENNARD_JONES] p_0/k_B:  58.08726 [K], p_1: 3.29000 [A], shift/k_B:  -0.09863801 [K], tailcorrection: no
     O2 -      C3 [LENNARD_JONES] p_0/k_B:  58.08726 [K], p_1: 3.29000 [A], shift/k_B:  -0.09863801 [K], tailcorrection: no
     O2 -      C4 [LENNARD_JONES] p_0/k_B:  58.08726 [K], p_1: 3.29000 [A], shift/k_B:  -0.09863801 [K], tailcorrection: no
     O2 -      C5 [LENNARD_JONES] p_0/k_B:  58.08726 [K], p_1: 3.29000 [A], shift/k_B:  -0.09863801 [K], tailcorrection: no
     O2 -      H1 [LENNARD_JONES] p_0/k_B:  23.22337 [K], p_1: 2.98000 [A], shift/k_B:  -0.02178179 [K], tailcorrection: no
     O2 -      H2 [LENNARD_JONES] p_0/k_B:  23.22337 [K], p_1: 2.98000 [A], shift/k_B:  -0.02178179 [K], tailcorrection: no
     O2 -  C_benz [LENNARD_JONES] p_0/k_B:  46.52258 [K], p_1: 3.35500 [A], shift/k_B:  -0.08883497 [K], tailcorrection: no
     O2 -  H_benz [LENNARD_JONES] p_0/k_B:  42.35829 [K], p_1: 2.73500 [A], shift/k_B:  -0.02374620 [K], tailcorrection: no
     C1 -      C1 [LENNARD_JONES] p_0/k_B:  47.00000 [K], p_1: 3.74000 [A], shift/k_B:  -0.17214791 [K], tailcorrection: no
     C1 -      C2 [LENNARD_JONES] p_0/k_B:  47.42805 [K], p_1: 3.60500 [A], shift/k_B:  -0.13935419 [K], tailcorrection: no
     C1 -      C3 [LENNARD_JONES] p_0/k_B:  47.42805 [K], p_1: 3.60500 [A], shift/k_B:  -0.13935419 [K], tailcorrection: no
     C1 -      C4 [LENNARD_JONES] p_0/k_B:  47.42805 [K], p_1: 3.60500 [A], shift/k_B:  -0.13935419 [K], tailcorrection: no
     C1 -      C5 [LENNARD_JONES] p_0/k_B:  47.42805 [K], p_1: 3.60500 [A], shift/k_B:  -0.13935419 [K], tailcorrection: no
     C1 -      H1 [LENNARD_JONES] p_0/k_B:  18.96180 [K], p_1: 3.29500 [A], shift/k_B:  -0.03249365 [K], tailcorrection: no
     C1 -      H2 [LENNARD_JONES] p_0/k_B:  18.96180 [K], p_1: 3.29500 [A], shift/k_B:  -0.03249365 [K], tailcorrection: no
     C1 -  C_benz [LENNARD_JONES] p_0/k_B:  37.98552 [K], p_1: 3.67000 [A], shift/k_B:  -0.12423143 [K], tailcorrection: no
     C1 -  H_benz [LENNARD_JONES] p_0/k_B:  34.58540 [K], p_1: 3.05000 [A], shift/k_B:  -0.03728613 [K], tailcorrection: no
     C2 -      C2 [LENNARD_JONES] p_0/k_B:  47.86000 [K], p_1: 3.47000 [A], shift/k_B:  -0.11185826 [K], tailcorrection: no
     C2 -      C3 [LENNARD_JONES] p_0/k_B:  47.86000 [K], p_1: 3.47000 [A], shift/k_B:  -0.11185826 [K], tailcorrection: no
     C2 -      C4 [LENNARD_JONES] p_0/k_B:  47.86000 [K], p_1: 3.47000 [A], shift/k_B:  -0.11185826 [K], tailcorrection: no
     C2 -      C5 [LENNARD_JONES] p_0/k_B:  47.86000 [K], p_1: 3.47000 [A], shift/k_B:  -0.11185826 [K], tailcorrection: no
     C2 -      H1 [LENNARD_JONES] p_0/k_B:  19.13450 [K], p_1: 3.16000 [A], shift/k_B:  -0.02551334 [K], tailcorrection: no
     C2 -      H2 [LENNARD_JONES] p_0/k_B:  19.13450 [K], p_1: 3.16000 [A], shift/k_B:  -0.02551334 [K], tailcorrection: no
     C2 -  C_benz [LENNARD_JONES] p_0/k_B:  38.33148 [K], p_1: 3.53500 [A], shift/k_B:  -0.10013379 [K], tailcorrection: no
     C2 -  H_benz [LENNARD_JONES] p_0/k_B:  34.90039 [K], p_1: 2.91500 [A], shift/k_B:  -0.02867774 [K], tailcorrection: no
     C3 -      C3 [LENNARD_JONES] p_0/k_B:  47.86000 [K], p_1: 3.47000 [A], shift/k_B:  -0.11185826 [K], tailcorrection: no
     C3 -      C4 [LENNARD_JONES] p_0/k_B:  47.86000 [K], p_1: 3.47000 [A], shift/k_B:  -0.11185826 [K], tailcorrection: no
     C3 -      C5 [LENNARD_JONES] p_0/k_B:  47.86000 [K], p_1: 3.47000 [A], shift/k_B:  -0.11185826 [K], tailcorrection: no
     C3 -      H1 [LENNARD_JONES] p_0/k_B:  19.13450 [K], p_1: 3.16000 [A], shift/k_B:  -0.02551334 [K], tailcorrection: no
     C3 -      H2 [LENNARD_JONES] p_0/k_B:  19.13450 [K], p_1: 3.16000 [A], shift/k_B:  -0.02551334 [K], tailcorrection: no
     C3 -  C_benz [LENNARD_JONES] p_0/k_B:  38.33148 [K], p_1: 3.53500 [A], shift/k_B:  -0.10013379 [K], tailcorrection: no
     C3 -  H_benz [LENNARD_JONES] p_0/k_B:  34.90039 [K], p_1: 2.91500 [A], shift/k_B:  -0.02867774 [K], tailcorrection: no
     C4 -      C4 [LENNARD_JONES] p_0/k_B:  47.86000 [K], p_1: 3.47000 [A], shift/k_B:  -0.11185826 [K], tailcorrection: no
     C4 -      C5 [LENNARD_JONES] p_0/k_B:  47.86000 [K], p_1: 3.47000 [A], shift/k_B:  -0.11185826 [K], tailcorrection: no
     C4 -      H1 [LENNARD_JONES] p_0/k_B:  19.13450 [K], p_1: 3.16000 [A], shift/k_B:  -0.02551334 [K], tailcorrection: no
     C4 -      H2 [LENNARD_JONES] p_0/k_B:  19.13450 [K], p_1: 3.16000 [A], shift/k_B:  -0.02551334 [K], tailcorrection: no
     C4 -  C_benz [LENNARD_JONES] p_0/k_B:  38.33148 [K], p_1: 3.53500 [A], shift/k_B:  -0.10013379 [K], tailcorrection: no
     C4 -  H_benz [LENNARD_JONES] p_0/k_B:  34.90039 [K], p_1: 2.91500 [A], shift/k_B:  -0.02867774 [K], tailcorrection: no
     C5 -      C5 [LENNARD_JONES] p_0/k_B:  47.86000 [K], p_1: 3.47000 [A], shift/k_B:  -0.11185826 [K], tailcorrection: no
     C5 -      H1 [LENNARD_JONES] p_0/k_B:  19.13450 [K], p_1: 3.16000 [A], shift/k_B:  -0.02551334 [K], tailcorrection: no
     C5 -      H2 [LENNARD_JONES] p_0/k_B:  19.13450 [K], p_1: 3.16000 [A], shift/k_B:  -0.02551334 [K], tailcorrection: no
     C5 -  C_benz [LENNARD_JONES] p_0/k_B:  38.33148 [K], p_1: 3.53500 [A], shift/k_B:  -0.10013379 [K], tailcorrection: no
     C5 -  H_benz [LENNARD_JONES] p_0/k_B:  34.90039 [K], p_1: 2.91500 [A], shift/k_B:  -0.02867774 [K], tailcorrection: no
     H1 -      H1 [LENNARD_JONES] p_0/k_B:   7.65000 [K], p_1: 2.85000 [A], shift/k_B:  -0.00549067 [K], tailcorrection: no
     H1 -      H2 [LENNARD_JONES] p_0/k_B:   7.65000 [K], p_1: 2.85000 [A], shift/k_B:  -0.00549067 [K], tailcorrection: no
     H1 -  C_benz [LENNARD_JONES] p_0/k_B:  15.32498 [K], p_1: 3.22500 [A], shift/k_B:  -0.02308804 [K], tailcorrection: no
     H1 -  H_benz [LENNARD_JONES] p_0/k_B:  13.95323 [K], p_1: 2.60500 [A], shift/k_B:  -0.00584047 [K], tailcorrection: no
     H2 -      H2 [LENNARD_JONES] p_0/k_B:   7.65000 [K], p_1: 2.85000 [A], shift/k_B:  -0.00549067 [K], tailcorrection: no
     H2 -  C_benz [LENNARD_JONES] p_0/k_B:  15.32498 [K], p_1: 3.22500 [A], shift/k_B:  -0.02308804 [K], tailcorrection: no
     H2 -  H_benz [LENNARD_JONES] p_0/k_B:  13.95323 [K], p_1: 2.60500 [A], shift/k_B:  -0.00584047 [K], tailcorrection: no
 C_benz -  C_benz [LENNARD_JONES] p_0/k_B:  30.70000 [K], p_1: 3.60000 [A], shift/k_B:  -0.08945594 [K], tailcorrection: no
 C_benz -  H_benz [LENNARD_JONES] p_0/k_B:  27.95201 [K], p_1: 2.98000 [A], shift/k_B:  -0.02621690 [K], tailcorrection: no
 H_benz -  H_benz [LENNARD_JONES] p_0/k_B:  25.45000 [K], p_1: 2.36000 [A], shift/k_B:  -0.00588989 [K], tailcorrection: no


MoleculeDefinitions:
===========================================================================
Component 0 [benzene] (Adsorbate molecule)

	MoleculeDefinitions: ExampleDefinitions
	Component contains (at least some) atoms which are charged
	Component contains no atoms with point dipoles (polarization)
	Component has a net charge of 0.000000

	Ideal chain Rosenbluth weight: 1
	Ideal chain total energy: 0.000000

	Critical temparure [K]: 562.050000
	Critical pressure [Pa]: 4894000.000000
	Acentric factor [-]: 0.209200

	RXMC partition factor ln(q/V) [ln(A^(-3))]:       0.0000000000

	Vapour=stable, Liquid=metastable

	MolFraction:           1.0000000000 [-]
	Compressibility:       0.0000000000 [-]

	Density of the bulk fluid phase:       0.0000000000 [kg/m^3]


	Amount of excess molecules:       0.0000000000 [-]

	Conversion factor molecules/unit cell -> mol/kg:       0.1252364263 [-]
	Conversion factor molecules/unit cell -> mg/g:       9.7744075175 [-]
	Conversion factor molecules/unit cell -> cm^3 STP/gr:       2.8070462226 [-]
	Conversion factor molecules/unit cell -> cm^3 STP/cm^3:       0.9238870119 [-]
	Conversion factor mol/kg -> cm^3 STP/gr:      22.4139757476 [-]
	Conversion factor mol/kg -> cm^3 STP/cm^3:       7.3771428885 [-]

	Partial pressure: -16605402.00000000000000 [Pa]
	                    -124540.51499999999942 [Torr]
	                       -166.05402000000001 [bar]
	                       -163.88257586972614 [atm]

	Fugacity coefficient:      -1.0000000000 [-]

	Partial fugacity:  16605402.00000000000000 [Pa]
	                     124540.51499999999942 [Torr]
	                        166.05402000000001 [bar]
	                        163.88257586972614 [atm]

	Molecule contains 12 number of atoms
		atom:    0  is of type:   11 [    C_benz] (group: 0)
		atom:    1  is of type:   11 [    C_benz] (group: 0)
		atom:    2  is of type:   11 [    C_benz] (group: 0)
		atom:    3  is of type:   11 [    C_benz] (group: 0)
		atom:    4  is of type:   11 [    C_benz] (group: 0)
		atom:    5  is of type:   11 [    C_benz] (group: 0)
		atom:    6  is of type:   12 [    H_benz] (group: 0)
		atom:    7  is of type:   12 [    H_benz] (group: 0)
		atom:    8  is of type:   12 [    H_benz] (group: 0)
		atom:    9  is of type:   12 [    H_benz] (group: 0)
		atom:   10  is of type:   12 [    H_benz] (group: 0)
		atom:   11  is of type:   12 [    H_benz] (group: 0)

	Molecule contains 0 chirality centers

	Molecule contains 1 number of groups

		group: 0 containing: 12 elements
		-------------------------------------------------
		the group is rigid and nonlinear
		Mass: 78.047640 [a.u.]
		Mass: 3.217065 [kg/m^3]

		Rotational Degrees of freedom: 3
		Diagonalized inertia vector:     176.4676545231
		                                  88.2338325899
		                                  88.2338297934
		number of atoms: 12
			element: 0 atom: 0 [    C_benz] Charge: -0.095000 Anisotropy: 0.000000 Position:  0.000016 -0.133163  1.385616 Connectivity: 3 (1 5 6 )
			element: 1 atom: 1 [    C_benz] Charge: -0.095000 Anisotropy: 0.000000 Position: -0.000328 -1.266560  0.577485 Connectivity: 3 (0 2 7 )
			element: 2 atom: 2 [    C_benz] Charge: -0.095000 Anisotropy: 0.000000 Position:  0.000233 -1.133397 -0.808131 Connectivity: 3 (1 3 8 )
			element: 3 atom: 3 [    C_benz] Charge: -0.095000 Anisotropy: 0.000000 Position: -0.000059  0.133163 -1.385616 Connectivity: 3 (2 4 9 )
			element: 4 atom: 4 [    C_benz] Charge: -0.095000 Anisotropy: 0.000000 Position: -0.000194  1.266561 -0.577485 Connectivity: 3 (3 5 10 )
			element: 5 atom: 5 [    C_benz] Charge: -0.095000 Anisotropy: 0.000000 Position:  0.000240  1.133397  0.808131 Connectivity: 3 (0 4 11 )
			element: 6 atom: 6 [    H_benz] Charge:  0.095000 Anisotropy: 0.000000 Position:  0.000023 -0.236480  2.460663 Connectivity: 1 (0 )
			element: 7 atom: 7 [    H_benz] Charge:  0.095000 Anisotropy: 0.000000 Position:  0.000262 -2.249236  1.025534 Connectivity: 1 (1 )
			element: 8 atom: 8 [    H_benz] Charge:  0.095000 Anisotropy: 0.000000 Position:  0.000589 -2.012757 -1.435129 Connectivity: 1 (2 )
			element: 9 atom: 9 [    H_benz] Charge:  0.095000 Anisotropy: 0.000000 Position:  0.000317  0.236479 -2.460663 Connectivity: 1 (3 )
			element: 10 atom: 10 [    H_benz] Charge:  0.095000 Anisotropy: 0.000000 Position: -0.000420  2.249236 -1.025535 Connectivity: 1 (4 )
			element: 11 atom: 11 [    H_benz] Charge:  0.095000 Anisotropy: 0.000000 Position:  0.000330  2.012757  1.435129 Connectivity: 1 (5 )
		number of permanent dipoles: 0
		number of polarizabilities: 0

		Dipole:           0.0005443763 [D]
		Quadrupole:      -5.7126418267       2.8563201813       2.8563216454 [D Angstrom]
		Quadrupole tensor [D Angstrom]
				      -5.7126415627      -0.0014751061      -0.0002925408
				      -0.0014751061       2.8563199519       0.0000001378
				      -0.0002925408       0.0000001378       2.8563216108

	Starting bead for growth               : 0

	Degrees of freedom                     : 0
	Translational degrees of freedom       : 0
	Rotational degrees of freedom          : 0
	Vibrational degrees of freedom         : 0
	Constraint degrees of freedom          : 0

	Number of atoms                        : 12

	Number of constraint bonds             : 0
	Number of constraint bends             : 0
	Number of constraint inversion bends   : 0
	Number of constraint torsions          : 0
	Number of constraint improper torsions : 0
	Number of constraint improper torsions : 0

	Number of bonds                        : 12
	Number of Urey-Bradleys                : 0
	Number of bends                        : 0
	Number of inversion bends              : 0
	Number of torsions                     : 0
	Number of improper torsions            : 0
	Number of improper torsions            : 0

	Number of bond/bond cross terms        : 0
	Number of bond/bend cross terms        : 0
	Number of bend/bend cross terms        : 0
	Number of stretch/torsion cross terms  : 0
	Number of bend/torsion cross terms     : 0

	Number of charges                      : 12
	Number of bond-dipoles                 : 0

	Number of intra Van der Waals                             : 0
	Number of intra charge-charge Coulomb                     : 0
	Number of intra charge-bonddipole Coulomb                 : 0
	Number of intra bonddipole-bonddipole Coulomb             : 0

	Number of excluded intra charge-charge Coulomb                     : 66
	Number of excluded intra charge-bonddipole Coulomb                 : 0
	Number of excluded intra bonddipole-bonddipole Coulomb             : 0

	Number of cbmc-config moves                               : 0

	Particle Moves:             
		ProbabilityTranslationMove:                  33.333333
			TranslationDirection:      XYZ
		Percentage of random translation moves:            0.000000
		Percentage of rotation moves:                      33.333333
		Percentage of random rotation moves:               0.000000
		Percentage of partial reinsertion moves:           0.000000
		Percentage of reinsertion moves:                   33.333333
		Percentage of reinsertion-in-place moves:          0.000000
		Percentage of reinsertion-in-plane moves:          0.000000
		Percentage of identity-change moves:               0.000000
		Percentage of swap (insert/delete) moves:          0.000000
		Percentage of CF swap lambda moves:                0.000000
		Percentage of CB/CFMC swap lambda moves:           0.000000
		Percentage of Widom insertion moves:               0.000000
		Percentage of CF-Widom insertion moves:            0.000000
		Percentage of Gibbs Widom insertion moves:         0.000000
		Percentage of surface-area moves:                  0.000000
		Percentage of Gibbs particle-transfer moves:       0.000000
		Percentage of Gibbs identity-change moves:         0.000000
		Percentage of CF Gibbs lambda-transfer moves:      0.000000
		Percentage of CB/CFMC Gibbs lambda-transfer moves: 0.000000
		Percentage of exchange frac./int. particle moves:  0.000000
		Percentage of fractional mol. to other box moves:  0.000000
		Percentage of lambda-change moves:                 0.000000
		Percentage of fractional to integer moves:         0.000000

	System Moves:
		Percentage of parallel-tempering moves:            0.000000
		Percentage of hyper-parallel-tempering moves:      0.000000
		Percentage of parallel-mol-fraction moves:         0.000000
			   Component A: 0 B: 1
		Percentage of chiral inversion moves:              0.000000
		Percentage of Hybrid-NVE moves:                    0.000000
		Percentage of Hybrid-NPH moves:                    0.000000
		Percentage of Hybrid-NPHPR moves:                  0.000000
		Percentage of volume-change moves:                 0.000000
		Percentage of box-shape-change moves:              0.000000
		Percentage of Gibbs volume-change moves:           0.000000
		Percentage of framework-change moves:              0.000000
		Percentage of framework-shift moves:               0.000000
		Percentage of reactive MC moves:                   0.000000

	Moves are restricted: No
	No biased sampling used for this component

	Number of Bonds: 12
	--------------------------------------------
	Bond interaction 0: A=0 B=1 Type:RIGID_BOND
		r_0=1.3920000000       [A]
	Bond interaction 1: A=1 B=2 Type:RIGID_BOND
		r_0=1.3919999982       [A]
	Bond interaction 2: A=2 B=3 Type:RIGID_BOND
		r_0=1.3920000059       [A]
	Bond interaction 3: A=3 B=4 Type:RIGID_BOND
		r_0=1.3920005921       [A]
	Bond interaction 4: A=4 B=5 Type:RIGID_BOND
		r_0=1.3920004048       [A]
	Bond interaction 5: A=5 B=0 Type:RIGID_BOND
		r_0=1.3920000001       [A]
	Bond interaction 6: A=0 B=6 Type:RIGID_BOND
		r_0=1.0799999985       [A]
	Bond interaction 7: A=1 B=7 Type:RIGID_BOND
		r_0=1.0799999959       [A]
	Bond interaction 8: A=2 B=8 Type:RIGID_BOND
		r_0=1.0799999995       [A]
	Bond interaction 9: A=3 B=9 Type:RIGID_BOND
		r_0=1.0799999953       [A]
	Bond interaction 10: A=4 B=10 Type:RIGID_BOND
		r_0=1.0799997078       [A]
	Bond interaction 11: A=5 B=11 Type:RIGID_BOND
		r_0=1.0800000145       [A]


	number of identity-config changes: 1
	--------------------------------------------
	nr fixed 1: 0 

	Number of pockets blocked in a unitcell: 0
		Pockets are NOT blocked for this component



Framework Status
===========================================================================
Lowenstein's rule obeyed by framework
	Framework is modelled as: flexible using the model of Local
	==================================================================================

	Number of Bonds definitions: 8
	--------------------------------------------
	Bond interaction between [O2-C1] using bond-type: HARMONIC_BOND (96 bonds)
	  args: 2   arg[0]=543840.649284 arg[1]=1.250000 
	Bond interaction between [C1-C2] using bond-type: HARMONIC_BOND (48 bonds)
	  args: 2   arg[0]=353750.919316 arg[1]=1.420000 
	Bond interaction between [C2-C3] using bond-type: HARMONIC_BOND (96 bonds)
	  args: 2   arg[0]=483413.910475 arg[1]=1.360000 
	Bond interaction between [C3-C4] using bond-type: HARMONIC_BOND (96 bonds)
	  args: 2   arg[0]=483413.910475 arg[1]=1.360000 
	Bond interaction between [C4-C5] using bond-type: HARMONIC_BOND (96 bonds)
	  args: 2   arg[0]=483413.910475 arg[1]=1.360000 
	Bond interaction between [C3-H1] using bond-type: HARMONIC_BOND (96 bonds)
	  args: 2   arg[0]=366001.131364 arg[1]=0.950000 
	Bond interaction between [C4-H2] using bond-type: HARMONIC_BOND (96 bonds)
	  args: 2   arg[0]=366001.131364 arg[1]=0.950000 
	Bond interaction between [C5-C5] using bond-type: HARMONIC_BOND (24 bonds)
	  args: 2   arg[0]=483413.910475 arg[1]=1.360000 

	Number of Bend definitions: 12
	--------------------------------------------
	Bend interaction between [O2-C1-O2] using bend-type: HARMONIC_BEND (48 bends)
	  args: 2   arg[0]=135960.162321 arg[1]=130.000000 
	Bend interaction between [O2-C1-C2] using bend-type: HARMONIC_BEND (96 bends)
	  args: 2   arg[0]=54882.484812 arg[1]=115.000000 
	Bend interaction between [C1-C2-C3] using bend-type: HARMONIC_BEND (96 bends)
	  args: 2   arg[0]=34926.554321 arg[1]=120.000000 
	Bend interaction between [C2-C3-C4] using bend-type: HARMONIC_BEND (96 bends)
	  args: 2   arg[0]=90640.108214 arg[1]=120.000000 
	Bend interaction between [C3-C4-C5] using bend-type: HARMONIC_BEND (96 bends)
	  args: 2   arg[0]=90640.108214 arg[1]=120.000000 
	Bend interaction between [C3-C2-C3] using bend-type: HARMONIC_BEND (48 bends)
	  args: 2   arg[0]=90640.108214 arg[1]=120.000000 
	Bend interaction between [C4-C5-C4] using bend-type: HARMONIC_BEND (48 bends)
	  args: 2   arg[0]=90640.108214 arg[1]=120.000000 
	Bend interaction between [C4-C5-C5] using bend-type: HARMONIC_BEND (96 bends)
	  args: 2   arg[0]=90640.108214 arg[1]=120.000000 
	Bend interaction between [C4-C3-H1] using bend-type: HARMONIC_BEND (96 bends)
	  args: 2   arg[0]=37263.155599 arg[1]=120.000000 
	Bend interaction between [C2-C3-H1] using bend-type: HARMONIC_BEND (96 bends)
	  args: 2   arg[0]=37263.155599 arg[1]=120.000000 
	Bend interaction between [C3-C4-H2] using bend-type: HARMONIC_BEND (96 bends)
	  args: 2   arg[0]=37263.155599 arg[1]=120.000000 
	Bend interaction between [C5-C4-H2] using bend-type: HARMONIC_BEND (96 bends)
	  args: 2   arg[0]=37263.155599 arg[1]=120.000000 

	Number of Torsion definitions: 14
	--------------------------------------------
	Torsion interaction between [O2-C1-C2-C3] using torsion-type:TRAPPE_DIHEDRAL (192 torsions)
	  args: 4   arg[0]=0.000000     arg[1]=0.000000     arg[2]=1258.890392  arg[3]=0.000000      VDW-scaling: 0.000000      q-scaling: 0.000000    
	Torsion interaction between [C1-C2-C3-C4] using torsion-type:TRAPPE_DIHEDRAL (96 torsions)
	  args: 4   arg[0]=0.000000     arg[1]=0.000000     arg[2]=1510.668470  arg[3]=0.000000      VDW-scaling: 0.000000      q-scaling: 0.000000    
	Torsion interaction between [C1-C2-C3-H1] using torsion-type:TRAPPE_DIHEDRAL (96 torsions)
	  args: 4   arg[0]=0.000000     arg[1]=0.000000     arg[2]=1510.668470  arg[3]=0.000000      VDW-scaling: 0.000000      q-scaling: 0.000000    
	Torsion interaction between [C2-C3-C4-C5] using torsion-type:TRAPPE_DIHEDRAL (96 torsions)
	  args: 4   arg[0]=0.000000     arg[1]=0.000000     arg[2]=1510.668470  arg[3]=0.000000      VDW-scaling: 0.000000      q-scaling: 0.000000    
	Torsion interaction between [C2-C3-C4-H2] using torsion-type:TRAPPE_DIHEDRAL (96 torsions)
	  args: 4   arg[0]=0.000000     arg[1]=0.000000     arg[2]=1510.668470  arg[3]=0.000000      VDW-scaling: 0.000000      q-scaling: 0.000000    
	Torsion interaction between [C3-C4-C5-C4] using torsion-type:TRAPPE_DIHEDRAL (96 torsions)
	  args: 4   arg[0]=0.000000     arg[1]=0.000000     arg[2]=1510.668470  arg[3]=0.000000      VDW-scaling: 0.000000      q-scaling: 0.000000    
	Torsion interaction between [C3-C4-C5-C5] using torsion-type:TRAPPE_DIHEDRAL (96 torsions)
	  args: 4   arg[0]=0.000000     arg[1]=0.000000     arg[2]=1510.668470  arg[3]=0.000000      VDW-scaling: 0.000000      q-scaling: 0.000000    
	Torsion interaction between [C3-C2-C3-C4] using torsion-type:TRAPPE_DIHEDRAL (96 torsions)
	  args: 4   arg[0]=0.000000     arg[1]=0.000000     arg[2]=1510.668470  arg[3]=0.000000      VDW-scaling: 0.000000      q-scaling: 0.000000    
	Torsion interaction between [C3-C2-C3-H1] using torsion-type:TRAPPE_DIHEDRAL (96 torsions)
	  args: 4   arg[0]=0.000000     arg[1]=0.000000     arg[2]=1510.668470  arg[3]=0.000000      VDW-scaling: 0.000000      q-scaling: 0.000000    
	Torsion interaction between [C4-C5-C4-H2] using torsion-type:TRAPPE_DIHEDRAL (96 torsions)
	  args: 4   arg[0]=0.000000     arg[1]=0.000000     arg[2]=1510.668470  arg[3]=0.000000      VDW-scaling: 0.000000      q-scaling: 0.000000    
	Torsion interaction between [C4-C5-C5-C4] using torsion-type:TRAPPE_DIHEDRAL (96 torsions)
	  args: 4   arg[0]=0.000000     arg[1]=0.000000     arg[2]=1510.668470  arg[3]=0.000000      VDW-scaling: 0.000000      q-scaling: 0.000000    
	Torsion interaction between [C5-C4-C3-H1] using torsion-type:TRAPPE_DIHEDRAL (96 torsions)
	  args: 4   arg[0]=0.000000     arg[1]=0.000000     arg[2]=1510.668470  arg[3]=0.000000      VDW-scaling: 0.000000      q-scaling: 0.000000    
	Torsion interaction between [C5-C5-C4-H2] using torsion-type:TRAPPE_DIHEDRAL (96 torsions)
	  args: 4   arg[0]=0.000000     arg[1]=0.000000     arg[2]=1510.668470  arg[3]=0.000000      VDW-scaling: 0.000000      q-scaling: 0.000000    
	Torsion interaction between [H2-C4-C3-H1] using torsion-type:TRAPPE_DIHEDRAL (96 torsions)
	  args: 4   arg[0]=0.000000     arg[1]=0.000000     arg[2]=1510.668470  arg[3]=0.000000      VDW-scaling: 0.000000      q-scaling: 0.000000    

	Number of Improper Torsion definitions: 5
	--------------------------------------------
	Improper Torsion interaction between [C1-C2-C3-C3] using improper torsion-type:TRAPPE_IMPROPER_DIHEDRAL (48 improper torsions)
	  args: 4   arg[0]=0.000000 arg[1]=0.000000 arg[2]=5035.561567 arg[3]=0.000000 
	Improper Torsion interaction between [C2-C1-O2-O2] using improper torsion-type:TRAPPE_IMPROPER_DIHEDRAL (48 improper torsions)
	  args: 4   arg[0]=0.000000 arg[1]=0.000000 arg[2]=5035.561567 arg[3]=0.000000 
	Improper Torsion interaction between [C4-C5-C4-C5] using improper torsion-type:TRAPPE_IMPROPER_DIHEDRAL (48 improper torsions)
	  args: 4   arg[0]=0.000000 arg[1]=0.000000 arg[2]=186.315778 arg[3]=0.000000 
	Improper Torsion interaction between [C3-C4-C5-H2] using improper torsion-type:TRAPPE_IMPROPER_DIHEDRAL (96 improper torsions)
	  args: 4   arg[0]=0.000000 arg[1]=0.000000 arg[2]=186.315778 arg[3]=0.000000 
	Improper Torsion interaction between [C2-C3-C4-H1] using improper torsion-type:TRAPPE_IMPROPER_DIHEDRAL (96 improper torsions)
	  args: 4   arg[0]=0.000000 arg[1]=0.000000 arg[2]=186.315778 arg[3]=0.000000 


	Number of core/shells:                           0
	Number of bonds:                                 648
	Number of bond-dipoles:                          0
	Number of bends:                                 1008
	Number of Urey-Bradleys:                         0
	Number of Inversion bends:                       0
	Number of Torsions:                              1440
	Number of Improper Torsions:                     336
	Number of Out-of-planes:                         0
	Number of bond-bond cross terms:                 0
	Number of bond-bend cross terms:                 0
	Number of bend-bend cross terms:                 0
	Number of stretch-torsion cross terms:           0
	Number of bend-torsion cross terms:              0

	Number of charges:                               616
	Number of bonddipoles:                           0

	Number of Intra VDW:                             218460
	Number of Intra Coulomb charge-charge:           218460
	Number of Intra Coulomb charge-bonddipole:       0
	Number of Intra Coulomb bonddipoles:             0
	Number of excluded Intra VDW:                    1656
	Number of excluded intra charge-charge:          1656
	Number of excluded intra charge-bonddipole:      0
	Number of excluded intra bonddipole-bonddipole:  0


	Number of 1-2 intra-framework pairs: 824
	Number of 1-3 intra-framework pairs: 1824
	Number of 1-4 intra-framework pairs: 4272
	Number of 1-2,1-3 intra-framework pairs: 2648
	Number of 1-2,1-3,1-4 intra-framework pairs: 6920
	Bond interactions are removed (excluded from VDW and Coulomb interactions)
	Bend interactions are removed (excluded from VDW and Coulomb interactions)
	Torsion interactions are *included* in the VDW and Coulomb interactions
	Remove12NeighboursFromVDWInteraction no
	Remove13NeighboursFromVDWInteraction no
	Remove14NeighboursFromVDWInteraction no
	Remove12NeighboursFromChargeChargeInteraction no
	Remove13NeighboursFromChargeChargeInteraction no
	Remove14NeighboursFromChargeChargeInteraction no
	Remove11NeighboursFromChargeBondDipoleInteraction no
	Remove12NeighboursFromChargeBondDipoleInteraction no
	Remove13NeighboursFromChargeBondDipoleInteraction no
	Remove14NeighboursFromChargeBondDipoleInteraction no
	Remove12NeighboursFromBondDipoleBondDipoleInteraction no
	Remove13NeighboursFromBondDipoleBondDipoleInteraction no
	Remove14NeighboursFromBondDipoleBondDipoleInteraction no
	InternalFrameworkLennardJonesInteractions yes


System Properties
===========================================================================
Unit cell size: 34.280700 34.280700 34.280700
Cell angles (radians)  alpha: 1.570796 beta: 1.570796 gamma: 1.570796
Cell angles (degrees)  alpha: 90.000000 beta: 90.000000 gamma: 90.000000
Number of unitcells [a]: 1
Number of unitcells [b]: 1
Number of unitcells [c]: 1

TRICLINIC Boundary conditions: alpha!=90 or beta!=90 or gamma!=90

Cartesian axis A is collinear with crystallographic axis a
Cartesian axis B is collinear with (axb)xA
Cartesian axis C is collinear with (axb)

lengths of cell vectors:
 34.28070  34.28070  34.28070
cosines of cell angles:
  0.00000   0.00000   0.00000
perpendicular cell widths:
 34.28070  34.28070  34.28070
volume of the cell: 40285.526551031951 (A^3)

Orthogonalization matrix Box
Transforms fractional coordinates abc into orthonormal Cartesian coordinates xyz
Deorthogonalization matrix InverseBox
Transforms orthonormal Cartesian coordinates xyz into fractional coordinates xyz

Box[0]:
	   34.280700000000     0.000000000000     0.000000000000
	    0.000000000000    34.280700000000     0.000000000000
	    0.000000000000     0.000000000000    34.280700000000

Inverse box[0]:
	    0.029170932916    -0.000000000000    -0.000000000000
	    0.000000000000     0.029170932916    -0.000000000000
	    0.000000000000     0.000000000000     0.029170932916


Unitcell box[0]:
	   34.280700000000     0.000000000000     0.000000000000
	    0.000000000000    34.280700000000     0.000000000000
	    0.000000000000     0.000000000000    34.280700000000

Unitcell inverse box[0]:
	    0.029170932916    -0.000000000000    -0.000000000000
	    0.000000000000     0.029170932916    -0.000000000000
	    0.000000000000     0.000000000000     0.029170932916

lengths of cell vectors (inverse box):
  0.02917   0.02917   0.02917
cosines of cell angles (inverse box):
 -0.00000  -0.00000  -0.00000
perpendicular cell widths (inverse):
  0.02917   0.02917   0.02917
volume of the cell: 40285.526551031951 (A^3)

No replicas are used
Framework is simulated as 'flexible'
Number of framework atoms: 664
Number of framework atoms in the unit cell: 664
Framework Mass:  7984.897279999983 [g/mol]
Framework Density:   329.131385325614 [kg/m^3]    3.0383003401839 [cm^3/g]
Helium void fraction:    0.00000000
Available pore volume:    0.00000000 [A^3]    0.00000000 [cm^3/g]
Conversion factor from molecule/unit cell -> kmol/m^3: 0.0412192, kmol/m^3 accesible pore volume: inf

Number Of Frameworks (per system): 1
----------------------------------------------------------------------
Framework name: IRMOF-10
Citation:
	author name:        'M. Eddaoudi, J. Kim, N. Rosi, D. Vodak, J. Wachter, M. O’Keeffe, and O.M. Yaghi','
	title:              'Systematic design of pore size and functionality in isoreticular MOFs and their application in methane storage'
	journal abbrev.:    'Science'
	journal volume:     295
	first page:         469
	last page:          472
	year:               2002
Space group: 225
	Identifier: 523
	short international Hermann-Mauguin symbol: F m -3 m
	long international Hermann-Mauguin symbol: F 4/m -3 2/m
	Hall symbol: -F 4 2 3
	Number of lattice translations: 4 [ (0,0,0) (0,0.5,0.5) (0.5,0,0.5) (0.5,0.5,0) ]
	acentric/centric: acentric
	chiral: yes
	enantiomorphic: no
	number of operators: 192
		'x,y,z'
		'-x,-y,z'
		'-x,y,-z'
		'x,-y,-z'
		'z,x,y'
		'z,-x,-y'
		'-z,-x,y'
		'-z,x,-y'
		'y,z,x'
		'-y,z,-x'
		'y,-z,-x'
		'-y,-z,x'
		'y,x,-z'
		'-y,-x,-z'
		'y,-x,z'
		'-y,x,z'
		'x,z,-y'
		'-x,z,y'
		'-x,-z,-y'
		'x,-z,y'
		'z,y,-x'
		'z,-y,x'
		'-z,y,x'
		'-z,-y,-x'
		'-x,-y,-z'
		'x,y,-z'
		'x,-y,z'
		'-x,y,z'
		'-z,-x,-y'
		'-z,x,y'
		'z,x,-y'
		'z,-x,y'
		'-y,-z,-x'
		'y,-z,x'
		'-y,z,x'
		'y,z,-x'
		'-y,-x,z'
		'y,x,z'
		'-y,x,-z'
		'y,-x,-z'
		'-x,-z,y'
		'x,-z,-y'
		'x,z,y'
		'-x,z,-y'
		'-z,-y,x'
		'-z,y,-x'
		'z,-y,-x'
		'z,y,x'
		'x,y+1/2,z+1/2'
		'-x,-y+1/2,z+1/2'
		'-x,y+1/2,-z+1/2'
		'x,-y+1/2,-z+1/2'
		'z,x+1/2,y+1/2'
		'z,-x+1/2,-y+1/2'
		'-z,-x+1/2,y+1/2'
		'-z,x+1/2,-y+1/2'
		'y,z+1/2,x+1/2'
		'-y,z+1/2,-x+1/2'
		'y,-z+1/2,-x+1/2'
		'-y,-z+1/2,x+1/2'
		'y,x+1/2,-z+1/2'
		'-y,-x+1/2,-z+1/2'
		'y,-x+1/2,z+1/2'
		'-y,x+1/2,z+1/2'
		'x,z+1/2,-y+1/2'
		'-x,z+1/2,y+1/2'
		'-x,-z+1/2,-y+1/2'
		'x,-z+1/2,y+1/2'
		'z,y+1/2,-x+1/2'
		'z,-y+1/2,x+1/2'
		'-z,y+1/2,x+1/2'
		'-z,-y+1/2,-x+1/2'
		'-x,-y+1/2,-z+1/2'
		'x,y+1/2,-z+1/2'
		'x,-y+1/2,z+1/2'
		'-x,y+1/2,z+1/2'
		'-z,-x+1/2,-y+1/2'
		'-z,x+1/2,y+1/2'
		'z,x+1/2,-y+1/2'
		'z,-x+1/2,y+1/2'
		'-y,-z+1/2,-x+1/2'
		'y,-z+1/2,x+1/2'
		'-y,z+1/2,x+1/2'
		'y,z+1/2,-x+1/2'
		'-y,-x+1/2,z+1/2'
		'y,x+1/2,z+1/2'
		'-y,x+1/2,-z+1/2'
		'y,-x+1/2,-z+1/2'
		'-x,-z+1/2,y+1/2'
		'x,-z+1/2,-y+1/2'
		'x,z+1/2,y+1/2'
		'-x,z+1/2,-y+1/2'
		'-z,-y+1/2,x+1/2'
		'-z,y+1/2,-x+1/2'
		'z,-y+1/2,-x+1/2'
		'z,y+1/2,x+1/2'
		'x+1/2,y,z+1/2'
		'-x+1/2,-y,z+1/2'
		'-x+1/2,y,-z+1/2'
		'x+1/2,-y,-z+1/2'
		'z+1/2,x,y+1/2'
		'z+1/2,-x,-y+1/2'
		'-z+1/2,-x,y+1/2'
		'-z+1/2,x,-y+1/2'
		'y+1/2,z,x+1/2'
		'-y+1/2,z,-x+1/2'
		'y+1/2,-z,-x+1/2'
		'-y+1/2,-z,x+1/2'
		'y+1/2,x,-z+1/2'
		'-y+1/2,-x,-z+1/2'
		'y+1/2,-x,z+1/2'
		'-y+1/2,x,z+1/2'
		'x+1/2,z,-y+1/2'
		'-x+1/2,z,y+1/2'
		'-x+1/2,-z,-y+1/2'
		'x+1/2,-z,y+1/2'
		'z+1/2,y,-x+1/2'
		'z+1/2,-y,x+1/2'
		'-z+1/2,y,x+1/2'
		'-z+1/2,-y,-x+1/2'
		'-x+1/2,-y,-z+1/2'
		'x+1/2,y,-z+1/2'
		'x+1/2,-y,z+1/2'
		'-x+1/2,y,z+1/2'
		'-z+1/2,-x,-y+1/2'
		'-z+1/2,x,y+1/2'
		'z+1/2,x,-y+1/2'
		'z+1/2,-x,y+1/2'
		'-y+1/2,-z,-x+1/2'
		'y+1/2,-z,x+1/2'
		'-y+1/2,z,x+1/2'
		'y+1/2,z,-x+1/2'
		'-y+1/2,-x,z+1/2'
		'y+1/2,x,z+1/2'
		'-y+1/2,x,-z+1/2'
		'y+1/2,-x,-z+1/2'
		'-x+1/2,-z,y+1/2'
		'x+1/2,-z,-y+1/2'
		'x+1/2,z,y+1/2'
		'-x+1/2,z,-y+1/2'
		'-z+1/2,-y,x+1/2'
		'-z+1/2,y,-x+1/2'
		'z+1/2,-y,-x+1/2'
		'z+1/2,y,x+1/2'
		'x+1/2,y+1/2,z'
		'-x+1/2,-y+1/2,z'
		'-x+1/2,y+1/2,-z'
		'x+1/2,-y+1/2,-z'
		'z+1/2,x+1/2,y'
		'z+1/2,-x+1/2,-y'
		'-z+1/2,-x+1/2,y'
		'-z+1/2,x+1/2,-y'
		'y+1/2,z+1/2,x'
		'-y+1/2,z+1/2,-x'
		'y+1/2,-z+1/2,-x'
		'-y+1/2,-z+1/2,x'
		'y+1/2,x+1/2,-z'
		'-y+1/2,-x+1/2,-z'
		'y+1/2,-x+1/2,z'
		'-y+1/2,x+1/2,z'
		'x+1/2,z+1/2,-y'
		'-x+1/2,z+1/2,y'
		'-x+1/2,-z+1/2,-y'
		'x+1/2,-z+1/2,y'
		'z+1/2,y+1/2,-x'
		'z+1/2,-y+1/2,x'
		'-z+1/2,y+1/2,x'
		'-z+1/2,-y+1/2,-x'
		'-x+1/2,-y+1/2,-z'
		'x+1/2,y+1/2,-z'
		'x+1/2,-y+1/2,z'
		'-x+1/2,y+1/2,z'
		'-z+1/2,-x+1/2,-y'
		'-z+1/2,x+1/2,y'
		'z+1/2,x+1/2,-y'
		'z+1/2,-x+1/2,y'
		'-y+1/2,-z+1/2,-x'
		'y+1/2,-z+1/2,x'
		'-y+1/2,z+1/2,x'
		'y+1/2,z+1/2,-x'
		'-y+1/2,-x+1/2,z'
		'y+1/2,x+1/2,z'
		'-y+1/2,x+1/2,-z'
		'y+1/2,-x+1/2,-z'
		'-x+1/2,-z+1/2,y'
		'x+1/2,-z+1/2,-y'
		'x+1/2,z+1/2,y'
		'-x+1/2,z+1/2,-y'
		'-z+1/2,-y+1/2,x'
		'-z+1/2,y+1/2,-x'
		'z+1/2,-y+1/2,-x'
		'z+1/2,y+1/2,x'
Framework is simulated as 'flexible'
Shift: 0.000000 0.000000 0.000000
Number of framework atoms: 664
Number of asymmetric atoms: 10
Number of free framework atoms: 664
Number of fixed framework atoms: 0
Number of framework atoms in the unit cell: 664
Framework Mass:  7984.897279999983 [g/mol]
Framework Density:   329.131385325614 [kg/m^3]
Framework has net charge: 0.000000
         largest charge : 1.275000
         smallest charge: -1.500000


Current Atom Status
===========================================================================
Number of framework atoms        : 664
Number of cations molecules      : 0
Number of adsorbate molecules    : 16
Component    0 :   16 molecules
Pseudo Atoms    0 [    UNIT]:    0 atoms
Pseudo Atoms    1 [     Zn1]:   32 atoms
Pseudo Atoms    2 [      O1]:    8 atoms
Pseudo Atoms    3 [      O2]:   96 atoms
Pseudo Atoms    4 [      C1]:   48 atoms
Pseudo Atoms    5 [      C2]:   48 atoms
Pseudo Atoms    6 [      C3]:   96 atoms
Pseudo Atoms    7 [      C4]:   96 atoms
Pseudo Atoms    8 [      C5]:   48 atoms
Pseudo Atoms    9 [      H1]:   96 atoms
Pseudo Atoms   10 [      H2]:   96 atoms
Pseudo Atoms   11 [  C_benz]:   96 atoms
Pseudo Atoms   12 [  H_benz]:   96 atoms


Current (initial full energy) Energy Status
===========================================================================

Internal energy:
Host stretch energy:                                       154987.84739223
Host UreyBradley energy:                                        0.00000000
Host bend energy:                                           21941.45910894
Host inversion-bend energy:                                     0.00000000
Host torsion energy:                                         1016.04777524
Host improper torsion energy:                                   5.93896427
Host out-of-plane energy:                                       0.00000000
Host stretch/stretch energy:                                    0.00000000
Host bend/bend energy:                                          0.00000000
Host stretch/bend energy:                                       0.00000000
Host stretch/torsion energy:                                    0.00000000
Host bend/torsion energy:                                       0.00000000

Adsorbate stretch energy:                                       0.00000000
Adsorbate UreyBradley energy:                                   0.00000000
Adsorbate bend energy:                                          0.00000000
Adsorbate inversion-bend energy:                                0.00000000
Adsorbate torsion energy:                                       0.00000000
Adsorbate improper torsion energy:                              0.00000000
Adsorbate out-of-plane energy:                                  0.00000000
Adsorbate stretch/stretch energy:                               0.00000000
Adsorbate bend/bend energy:                                     0.00000000
Adsorbate stretch/bend energy:                                  0.00000000
Adsorbate stretch/torsion energy:                               0.00000000
Adsorbate bend/torsion energy:                                  0.00000000
Adsorbate intra VDW energy:                                     0.00000000
Adsorbate intra charge-charge Coulomb energy:                   0.00000000
Adsorbate intra charge-bonddipole Coulomb energy:               0.00000000
Adsorbate intra bonddipole-bonddipole Coulomb energy:           0.00000000

Cation stretch energy:                                          0.00000000
Cation UreyBradley energy:                                      0.00000000
Cation bend energy:                                             0.00000000
Cation inversion-bend energy:                                   0.00000000
Cation torsion energy:                                          0.00000000
Cation improper torsion energy:                                 0.00000000
Cation out-of-plane energy:                                     0.00000000
Cation stretch/stretch energy:                                  0.00000000
Cation bend/bend energy:                                        0.00000000
Cation stretch/bend energy:                                     0.00000000
Cation stretch/torsion energy:                                  0.00000000
Cation bend/torsion energy:                                     0.00000000
Cation intra VDW energy:                                        0.00000000
Cation intra charge-charge Coulomb energy:                      0.00000000
Cation intra charge-bonddipole Coulomb energy:                  0.00000000
Cation intra bonddipole-bonddipole Coulomb energy:              0.00000000

Host/Host energy:                                      -3803084.08085702
	Host/Host VDW energy:                                   1273431.91280995
	Host/Host Coulomb energy:                              -5076515.99366697
	Host/Host charge-charge Real energy:                   -3289243.67162222
	Host/Host charge-charge Fourier energy:                -1787272.32204474
	Host/Host charge-bonddipole Real energy:                      0.00000000
	Host/Host charge-bonddipole Fourier energy:                   0.00000000
	Host/Host bondipole-bonddipole Real energy:                   0.00000000
	Host/Host bondipole-bonddipole Fourier energy:                0.00000000

Host/Adsorbate energy:                                   -23258.60485746
	Host/Adsorbate VDW energy:                               -23683.77669006
	Host/Adsorbate Coulomb energy:                              425.17183260
	Host/Adsorbate charge-charge Real energy:                    38.57482186
	Host/Adsorbate charge-charge Fourier energy:                386.59701074
	Host/Adsorbate charge-bonddipole Real energy:                 0.00000000
	Host/Adsorbate charge-bonddipole Fourier energy:              0.00000000
	Host/Adsorbate bondipole-bonddipole Real energy:              0.00000000
	Host/Adsorbate bondipole-bonddipole Fourier energy:           0.00000000

Host/Cation energy:                                           0.00000000
	Host/Cation VDW energy:                                       0.00000000
	Host/Cation Coulomb energy:                                   0.00000000
	Host/Cation charge-charge Real energy:                        0.00000000
	Host/Cation charge-charge Fourier energy:                     0.00000000
	Host/Cation charge-bonddipole Real energy:                    0.00000000
	Host/Cation charge-bonddipole Fourier energy:                 0.00000000
	Host/Cation bondipole-bonddipole Real energy:                 0.00000000
	Host/Cation bondipole-bonddipole Fourier energy:              0.00000000

Adsorbate/Adsorbate energy:                                    -4005.46751300
	Adsorbate/Adsorbate VDW energy:                                -3920.48581610
	Adsorbate/Adsorbate Coulomb energy:                              -84.98169690
	Adsorbate/Adsorbate charge-charge Real energy:                    36.73967740
	Adsorbate/Adsorbate charge-charge Fourier energy:               -121.72137430
	Adsorbate/Adsorbate charge-bonddipole Real energy:                 0.00000000
	Adsorbate/Adsorbate charge-bonddipole Fourier energy:              0.00000000
	Adsorbate/Adsorbate bondipole-bonddipole Real energy:              0.00000000
	Adsorbate/Adsorbate bondipole-bonddipole Fourier energy:           0.00000000

Adsorbate/Cation energy:                                           0.00000000
	Adsorbate/Cation VDW energy:                                       0.00000000
	Adsorbate/Cation Coulomb energy:                                   0.00000000
	Adsorbate/Cation charge-charge Real energy:                        0.00000000
	Adsorbate/Cation charge-charge Fourier energy:                     0.00000000
	Adsorbate/Cation charge-bonddipole Real energy:                    0.00000000
	Adsorbate/Cation charge-bonddipole Fourier energy:                 0.00000000
	Adsorbate/Cation bondipole-bonddipole Real energy:                 0.00000000
	Adsorbate/Cation bondipole-bonddipole Fourier energy:              0.00000000

Cation/Cation energy:                                           0.00000000
	Cation/Cation VDW energy:                                       0.00000000
	Cation/Cation Coulomb energy:                                   0.00000000
	Cation/Cation charge-charge Real energy:                        0.00000000
	Cation/Cation charge-charge Fourier energy:                     0.00000000
	Cation/Cation charge-bonddipole Real energy:                    0.00000000
	Cation/Cation charge-bonddipole Fourier energy:                 0.00000000
	Cation/Cation bondipole-bonddipole Real energy:                 0.00000000
	Cation/Cation bondipole-bonddipole Fourier energy:              0.00000000

Polarization energy:
	Host polarization energy:                                     0.00000000
	Adsorbate polarization energy:                                0.00000000
	Cation polarization energy:                                   0.00000000
	Host back-polarization energy:                                     0.00000000
	Adsorbate back-polarization energy:                                0.00000000
	Cation back-polarization energy:                                   0.00000000

Tail-correction energy:                                       0.00000000

Distance constraints energy:                                  0.00000000
Angle constraints energy:                                     0.00000000
Dihedral constraints energy:                                  0.00000000
Inversion-bend constraints energy:                            0.00000000
Out-of-plane distance constraints energy:                     0.00000000
Exclusion constraints energy:                                 0.00000000

===================================================================
Total energy: -3652396.859986803494
	Total Van der Waals: 1245827.650304
	Total Coulomb: -5076175.803531

	Total Polarization: 0.000000







+++++++++++++++++++++++++++++++++++++++++++++++++++++++++++++++++++++++++
Starting simulation
+++++++++++++++++++++++++++++++++++++++++++++++++++++++++++++++++++++++++

[Init] Current cycle: 0 out of 100
========================================================================================================

Net charge: 7.74381e-15 (F: 7.77156e-15, A: -2.77556e-17, C: 0)
Current Box:  34.28070   0.00000   0.00000 [A]
               0.00000  34.28070   0.00000 [A]
               0.00000   0.00000  34.28070 [A]
Box-lengths:  34.28070  34.28070  34.28070 Box-angles:   90.00000  90.00000  90.00000 [degrees]
Volume: 40285.52655 [A^3]

Framework center-of-mass drift:       0.0000000000 [A]       0.0000000000 [A]       0.0000000000 [A]
Loadings per component:
----------------------------------------------------------------------------------------------------------------------------------------------------
Component 0 (benzene), current number of integer/fractional/reaction molecules: 16/0/0, density:  51.47307 [kg/m^3]
	absolute adsorption:  16.00000 [mol/uc],         2.0038 [mol/kg],            156.3905 [mg/g]
	                                                44.9127 [cm^3 STP/g],         14.7822 [cm^3 STP/cm^3]
	excess adsorption:    16.00000 [mol/uc],         2.0038 [mol/kg],            156.3905 [mg/g]
	                                                44.9127 [cm^3 STP/g],         14.7822 [cm^3 STP/cm^3]
----------------------------------------------------------------------------------------------------------------------------------------------------
Degrees of freedom: 2088 1992 96 0
Number of Framework-atoms:    664
Number of Adsorbates:          16 (16 integer, 0 fractional, 0 reaction)
Number of Cations:              0 (0 integer, 0 fractional, 0 reaction

Current total potential energy:          -3652396.8599868035 [K]
	Current Host-Host energy:              -3803084.0808570166 [K]
	Current Host-Adsorbate energy:           -23258.6048574621 [K]
	Current Host-Cation energy:                   0.0000000000 [K]
	Current Adsorbate-Adsorbate energy:       -4005.4675130013 [K]
	Current Cation-Cation energy:                 0.0000000000 [K]
	Current Adsorbate-Cation energy:              0.0000000000 [K]
		Current Host-Bond energy:                  154987.8473922257 [K]
		Current Host-Bend energy:                   21941.4591089418 [K]
		Current Host-Torsion energy:                 1016.0477752413 [K]
		Current Host-Improper torsion energy:           5.9389642680 [K]



[Equilibration] Current cycle: 0 out of 10000
========================================================================================================

Net charge: 7.74381e-15 (F: 7.77156e-15, A: -2.77556e-17, C: 0)
Current Box:  34.28070   0.00000   0.00000 [A]
               0.00000  34.28070   0.00000 [A]
               0.00000   0.00000  34.28070 [A]
Box-lengths:  34.28070  34.28070  34.28070 Box-angles:   90.00000  90.00000  90.00000 [degrees]
Volume: 40285.52655 [A^3]

Framework center-of-mass drift:       0.0000000000 [A]       0.0000000000 [A]       0.0000000000 [A]
Total linear momentum:       0.0000000000 [A]      -0.0000000000 [A]       0.0000000000 [A]

Loadings per component:
----------------------------------------------------------------------------------------------------------------------------------------------------
Component 0 (benzene), current number of integer/fractional/reaction molecules: 16/0/0, density:  51.47307 [kg/m^3]
	absolute adsorption:  16.00000 [mol/uc],         2.0038 [mol/kg],            156.3905 [mg/g]
	                                                 44.9127 [cm^3 STP/g],         14.7822 [cm^3 STP/cm^3]
	excess adsorption:    16.00000 [mol/uc],         2.0038 [mol/kg],            156.3905 [mg/g]
	                                                 44.9127 [cm^3 STP/g],         14.7822 [cm^3 STP/cm^3]
----------------------------------------------------------------------------------------------------------------------------------------------------
Degrees of freedom: 2085 1992 96 0
Number of Framework-atoms:    664
Number of Adsorbates:          16 (16 integer, 0 fractional, 0 reaction)
Number of Cations:              0 (0 integer, 0 fractional, 0 reaction)

Conserved energy:    -3218698.7328072763 Energy drifts:  0.0000000000           0.0000000000
Temperature:                    296.5591725947
Temperature Framework:          297.9086801068
Temperature Adsorbates:         259.2894175770
Cell temperature:    0.000
Current total kinetic energy:            257052.4397612014 [K]
Current total Nose-Hoover energy:        128552.7669573529 [K]
Current total potential energy:          -3682475.4792316630 [K]
	Current Host-Host energy:              -3803084.0808570222 [K]
	Current Host-Adsorbate energy:           -56128.4292944586 [K]
	Current Host-Cation energy:                   0.0000000000 [K]
	Current Adsorbate-Adsorbate energy:       -1214.2623208585 [K]
	Current Cation-Cation energy:                 0.0000000000 [K]
	Current Adsorbate-Cation energy:              0.0000000000 [K]
		Current Host-Bond energy:                  154987.8473922257 [K]
		Current Host-Bend energy:                   21941.4591089418 [K]
		Current Host-Torsion energy:                 1016.0477752411 [K]
		Current Host-Improper torsion energy:           5.9389642681 [K]



[Equilibration] Current cycle: 5000 out of 10000
========================================================================================================

Net charge: 7.74381e-15 (F: 7.77156e-15, A: -2.77556e-17, C: 0)
Current Box:  34.28070   0.00000   0.00000 [A]
               0.00000  34.28070   0.00000 [A]
               0.00000   0.00000  34.28070 [A]
Box-lengths:  34.28070  34.28070  34.28070 Box-angles:   90.00000  90.00000  90.00000 [degrees]
Volume: 40285.52655 [A^3]

Framework center-of-mass drift:       0.0274608366 [A]      -0.0099886919 [A]       0.0266806441 [A]
Total linear momentum:       0.0816717264 [A]       0.0207670833 [A]      -0.0110364825 [A]

Loadings per component:
----------------------------------------------------------------------------------------------------------------------------------------------------
Component 0 (benzene), current number of integer/fractional/reaction molecules: 16/0/0, density:  51.47307 [kg/m^3]
	absolute adsorption:  16.00000 [mol/uc],         2.0038 [mol/kg],            156.3905 [mg/g]
	                                                 44.9127 [cm^3 STP/g],         14.7822 [cm^3 STP/cm^3]
	excess adsorption:    16.00000 [mol/uc],         2.0038 [mol/kg],            156.3905 [mg/g]
	                                                 44.9127 [cm^3 STP/g],         14.7822 [cm^3 STP/cm^3]
----------------------------------------------------------------------------------------------------------------------------------------------------
Degrees of freedom: 2085 1992 96 0
Number of Framework-atoms:    664
Number of Adsorbates:          16 (16 integer, 0 fractional, 0 reaction)
Number of Cations:              0 (0 integer, 0 fractional, 0 reaction)

Conserved energy:    -3219145.7076030485 Energy drifts:  0.0001670201           0.0001804376
Temperature:                    303.7494045352
Temperature Framework:          302.1615613019
Temperature Adsorbates:         327.2049827342
Cell temperature:    0.000
Current total kinetic energy:            263284.8103420190 [K]
Current total Nose-Hoover energy:         85562.5479500480 [K]
Current total potential energy:          -3638712.8970718426 [K]
	Current Host-Host energy:              -4114965.6192398421 [K]
	Current Host-Adsorbate energy:           -49661.1561096596 [K]
	Current Host-Cation energy:                   0.0000000000 [K]
	Current Adsorbate-Adsorbate energy:        -873.8861991339 [K]
	Current Cation-Cation energy:                 0.0000000000 [K]
	Current Adsorbate-Cation energy:              0.0000000000 [K]
		Current Host-Bond energy:                  249210.2273309810 [K]
		Current Host-Bend energy:                  143640.8375858398 [K]
		Current Host-Torsion energy:               126212.3041112174 [K]
		Current Host-Improper torsion energy:        7724.3954487553 [K]



Average Properties at Current cycle: 0 out of 1000000
========================================================================================

Framework surface area:       0.0000000000 [m^2/g]        0.0000000000 [m^2/cm^3]       0.0000000000 [A^2]
	Framework 0 individual surface area:       0.0000000000 [m^2/g]        0.0000000000 [m^2/cm^3]       0.0000000000 [A^2]
	Cation surface area:                       0.0000000000 [m^2/g]        0.0000000000 [m^2/cm^3]       0.0000000000 [A^2]
Compressibility:       0.0000000000 [-]
Henry coefficients
	Component 0: 0 [mol/kg/Pa] (Rosenbluth factor new: 0 [-])
Energy <U_gh>_1-<U_h>_0 from Widom


Current cycle: 0 out of 1000000
========================================================================================================

Time run:   0.000000 [ps]   0.000000 [ns] 
Net charge: 7.74381e-15 (F: 7.77156e-15, A: -2.77556e-17, C: 0)
Current Box:  34.28070   0.00000   0.00000 [A]   Average Box:  34.28070   0.00000   0.00000 [A]
               0.00000  34.28070   0.00000 [A]                  0.00000  34.28070   0.00000 [A]
               0.00000   0.00000  34.28070 [A]                  0.00000   0.00000  34.28070 [A]
Box-lengths:   34.28070  34.28070  34.28070 [A] Average:  34.28070  34.28070  34.28070 [A]
Box-angles:   90.00000  90.00000  90.00000 [degrees] Average:  90.00000  90.00000  90.00000 [degrees]
Volume: 40285.52655 [A^3] Average Volume: 40285.52655 [A^3]

Framework center-of-mass drift:       0.2172076063 [A]      -0.0209059694 [A]      -0.0504650884 [A]
Total linear momentum:       0.0939641409 [A]      -0.0473312967 [A]      -0.0285110983 [A]

Current Stress:  43.72801  17.40900  51.28580 [MPa]   Average Stress: 43728.01458 17408.99992 51285.80450 [kPa]
                 17.40900  97.99992 -38.66539 [MPa]                   17408.99992 97999.91882 -38665.38666 [kPa]
                 51.28580 -38.66539  43.27683 [MPa]                   51285.80450 -38665.38666 43276.82650 [kPa]
Average pressure:   61668.2532999918 [kPa]     608.6183399950 [atm]     616.6825329999 [bar]

Loadings per component:
----------------------------------------------------------------------------------------------------------------------------------------------------
Component 0 (benzene), current number of integer/fractional/reaction molecules: 16/0/0 (avg.  16.00000), density:  51.47307 (avg.  51.47307) [kg/m^3]
	absolute adsorption:  16.00000 (avg.  16.00000) [mol/uc],   2.0037828214 (avg.   2.0037828214) [mol/kg], 156.3905202798 (avg. 156.3905202798) [mg/g]
	                      44.9127395614 (avg.  44.9127395614) [cm^3 STP/g],   14.7821921906 (avg.  14.7821921906) [cm^3 STP/cm^3]
	excess adsorption:    16.0000000000 (avg.  16.0000000000) [mol/uc],   2.0037828214 (avg.   2.0037828214) [mol/kg], 156.3905202798 (avg. 156.3905202798) [mg/g]
	                      44.9127395614 (avg.  44.9127395614) [cm^3 STP/g],   14.7821921906 (avg.  14.7821921906) [cm^3 STP/cm^3]
----------------------------------------------------------------------------------------------------------------------------------------------------
Degrees of freedom: 2085 1992 96 0
Number of Framework-atoms:    664
Number of Adsorbates:          16 (16 integer, 0 fractional, 0 reaction)
Number of Cations:              0 (0 integer, 0 fractional, 0 reaction)

Conserved energy:    -3219279.5726655046 Energy drifts:  0.0000000000           0.0000000000
Temperature:             287.278 (avg.  287.278), Translational (avg.  287.107), Rotational (avg.  294.510)
Temperature Framework:   287.904 (avg.  287.904)
Temperature Adsorbates:  265.306 (avg.  265.306), Translational (avg.  236.102), Rotational (avg.  294.510)
Cell temperature:    0.000 (avg.    0.000)
Current total kinetic energy:            249007.5380936802 [K]
Current total Nose-Hoover energy:        121716.7748858903 [K]
Current total potential energy:          -3665158.7068120823 [K]  (avg.    -3665158.7068120823)
	Current Host-Host energy:              -4105776.7222438003 [K]  (avg.    -4105776.7222438003)
	Current Host-Adsorbate energy:           -50157.8392853436 [K]  (avg.      -50157.8392853436)
	Current Host-Cation energy:                   0.0000000000 [K]  (avg.           0.0000000000)
	Current Adsorbate-Adsorbate energy:       -1940.1793384759 [K]  (avg.       -1940.1793384759)
	Current Cation-Cation energy:                 0.0000000000 [K]  (avg.           0.0000000000)
	Current Adsorbate-Cation energy:              0.0000000000 [K]  (avg.           0.0000000000)
		Current Host-Bond energy:                  246617.1452377425 [K]  (avg.      246617.1452377425)
		Current Host-Bend energy:                  122460.9647090144 [K]  (avg.      122460.9647090144)
		Current Host-Torsion energy:               115963.7008375296 [K]  (avg.      115963.7008375296)
		Current Host-Improper torsion energy:        7674.2232712504 [K]  (avg.        7674.2232712504)



Current cycle: 5000 out of 1000000
========================================================================================================

Time run:   2.500000 [ps]   0.002500 [ns] 
Net charge: 7.74381e-15 (F: 7.77156e-15, A: -2.77556e-17, C: 0)
Current Box:  34.28070   0.00000   0.00000 [A]   Average Box:  34.28070   0.00000   0.00000 [A]
               0.00000  34.28070   0.00000 [A]                  0.00000  34.28070   0.00000 [A]
               0.00000   0.00000  34.28070 [A]                  0.00000   0.00000  34.28070 [A]
Box-lengths:   34.28070  34.28070  34.28070 [A] Average:  34.28070  34.28070  34.28070 [A]
Box-angles:   90.00000  90.00000  90.00000 [degrees] Average:  90.00000  90.00000  90.00000 [degrees]
Volume: 40285.52655 [A^3] Average Volume: 40285.52655 [A^3]

Framework center-of-mass drift:       0.4150457723 [A]      -0.1209116946 [A]      -0.1413249312 [A]
Total linear momentum:       0.0958109670 [A]      -0.0136675363 [A]      -0.0465450844 [A]

Current Stress: -25.91045  30.78093   8.95856 [MPa]   Average Stress: -23400.88698 -230.10179 -652.49111 [kPa]
                 30.78093 -108.11198  32.85094 [MPa]                   -230.10179 -28584.47738 -499.04944 [kPa]
                  8.95856  32.85094 -64.15435 [MPa]                   -652.49111 -499.04944 -36720.31606 [kPa]
Average pressure:  -29568.5601414850 [kPa]    -291.8189996692 [atm]    -295.6856014148 [bar]

Loadings per component:
----------------------------------------------------------------------------------------------------------------------------------------------------
Component 0 (benzene), current number of integer/fractional/reaction molecules: 16/0/0 (avg.  16.00000), density:  51.47307 (avg.  51.47307) [kg/m^3]
	absolute adsorption:  16.00000 (avg.  16.00000) [mol/uc],   2.0037828214 (avg.   2.0037828214) [mol/kg], 156.3905202798 (avg. 156.3905202798) [mg/g]
	                      44.9127395614 (avg.  44.9127395614) [cm^3 STP/g],   14.7821921906 (avg.  14.7821921906) [cm^3 STP/cm^3]
	excess adsorption:    16.0000000000 (avg.  16.0000000000) [mol/uc],   2.0037828214 (avg.   2.0037828214) [mol/kg], 156.3905202798 (avg. 156.3905202798) [mg/g]
	                      44.9127395614 (avg.  44.9127395614) [cm^3 STP/g],   14.7821921906 (avg.  14.7821921906) [cm^3 STP/cm^3]
----------------------------------------------------------------------------------------------------------------------------------------------------
Degrees of freedom: 2085 1992 96 0
Number of Framework-atoms:    664
Number of Adsorbates:          16 (16 integer, 0 fractional, 0 reaction)
Number of Cations:              0 (0 integer, 0 fractional, 0 reaction)

Conserved energy:    -3219134.2511930112 Energy drifts:  0.0000542922           0.0000193924
Temperature:             304.211 (avg.  300.104), Translational (avg.  300.694), Rotational (avg.  275.063)
Temperature Framework:   305.739 (avg.  300.503)
Temperature Adsorbates:  263.011 (avg.  282.436), Translational (avg.  289.808), Rotational (avg.  275.063)
Cell temperature:    0.000 (avg.    0.000)
Current total kinetic energy:            263685.3353781538 [K]
Current total Nose-Hoover energy:         92869.3506086153 [K]
Current total potential energy:          -3647971.2308503087 [K]  (avg.    -3657594.1841965965)
	Current Host-Host energy:              -4120456.9845691854 [K]  (avg.    -4122905.4701507916)
	Current Host-Adsorbate energy:           -50508.5409684529 [K]  (avg.      -49933.7087898468)
	Current Host-Cation energy:                   0.0000000000 [K]  (avg.           0.0000000000)
	Current Adsorbate-Adsorbate energy:       -2973.3828537199 [K]  (avg.       -2242.4807456925)
	Current Cation-Cation energy:                 0.0000000000 [K]  (avg.           0.0000000000)
	Current Adsorbate-Cation energy:              0.0000000000 [K]  (avg.           0.0000000000)
		Current Host-Bond energy:                  250801.7647523584 [K]  (avg.      251450.8020571524)
		Current Host-Bend energy:                  139367.6772191284 [K]  (avg.      136649.5954267120)
		Current Host-Torsion energy:               127813.4855615061 [K]  (avg.      120890.4362850170)
		Current Host-Improper torsion energy:        7984.7500080558 [K]  (avg.        8496.6417208401)



Average Properties at Current cycle: 10000 out of 1000000
========================================================================================

[...]
	Block[ 3]            0.00000 [K]
	Block[ 4]            0.00000 [K]
	------------------------------------------------------------------------------
	Average              0.00000 [K] +/-            0.00000 [K]

Average Cation Bend angle inversion energy:
===========================================
	Block[ 0]            0.00000 [K]
	Block[ 1]            0.00000 [K]
	Block[ 2]            0.00000 [K]
	Block[ 3]            0.00000 [K]
	Block[ 4]            0.00000 [K]
	------------------------------------------------------------------------------
	Average              0.00000 [K] +/-            0.00000 [K]

Average Cation Torsion energy:
==============================
	Block[ 0]            0.00000 [K]
	Block[ 1]            0.00000 [K]
	Block[ 2]            0.00000 [K]
	Block[ 3]            0.00000 [K]
	Block[ 4]            0.00000 [K]
	------------------------------------------------------------------------------
	Average              0.00000 [K] +/-            0.00000 [K]

Average Cation Improper Torsion energy:
=======================================
	Block[ 0]            0.00000 [K]
	Block[ 1]            0.00000 [K]
	Block[ 2]            0.00000 [K]
	Block[ 3]            0.00000 [K]
	Block[ 4]            0.00000 [K]
	------------------------------------------------------------------------------
	Average              0.00000 [K] +/-            0.00000 [K]

Average Cation Bond-Bond cross term energy:
=================================================
	Block[ 0]            0.00000 [K]
	Block[ 1]            0.00000 [K]
	Block[ 2]            0.00000 [K]
	Block[ 3]            0.00000 [K]
	Block[ 4]            0.00000 [K]
	------------------------------------------------------------------------------
	Average              0.00000 [K] +/-            0.00000 [K]

Average Cation Bend-Bend cross term energy:
===========================================
	Block[ 0]            0.00000 [K]
	Block[ 1]            0.00000 [K]
	Block[ 2]            0.00000 [K]
	Block[ 3]            0.00000 [K]
	Block[ 4]            0.00000 [K]
	------------------------------------------------------------------------------
	Average              0.00000 [K] +/-            0.00000 [K]

Average Cation Bond-Bend cross term energy:
==============================================
	Block[ 0]            0.00000 [K]
	Block[ 1]            0.00000 [K]
	Block[ 2]            0.00000 [K]
	Block[ 3]            0.00000 [K]
	Block[ 4]            0.00000 [K]
	------------------------------------------------------------------------------
	Average              0.00000 [K] +/-            0.00000 [K]

Average Cation Bond-Torsion cross term energy:
==============================================
	Block[ 0]            0.00000 [K]
	Block[ 1]            0.00000 [K]
	Block[ 2]            0.00000 [K]
	Block[ 3]            0.00000 [K]
	Block[ 4]            0.00000 [K]
	------------------------------------------------------------------------------
	Average              0.00000 [K] +/-            0.00000 [K]

Average Cation Bend-Torsion cross term energy:
==============================================
	Block[ 0]            0.00000 [K]
	Block[ 1]            0.00000 [K]
	Block[ 2]            0.00000 [K]
	Block[ 3]            0.00000 [K]
	Block[ 4]            0.00000 [K]
	------------------------------------------------------------------------------
	Average              0.00000 [K] +/-            0.00000 [K]

Average Cation Intra Van der Waals energy:
==========================================
	Block[ 0]            0.00000 [K]
	Block[ 1]            0.00000 [K]
	Block[ 2]            0.00000 [K]
	Block[ 3]            0.00000 [K]
	Block[ 4]            0.00000 [K]
	------------------------------------------------------------------------------
	Average              0.00000 [K] +/-            0.00000 [K]

Average Cation Intra charge-charge Coulomb energy:
====================================
	Block[ 0]            0.00000 [K]
	Block[ 1]            0.00000 [K]
	Block[ 2]            0.00000 [K]
	Block[ 3]            0.00000 [K]
	Block[ 4]            0.00000 [K]
	------------------------------------------------------------------------------
	Average              0.00000 [K] +/-            0.00000 [K]

Average Cation Intra charge-bonddipole Coulomb energy:
====================================
	Block[ 0]            0.00000 [K]
	Block[ 1]            0.00000 [K]
	Block[ 2]            0.00000 [K]
	Block[ 3]            0.00000 [K]
	Block[ 4]            0.00000 [K]
	------------------------------------------------------------------------------
	Average              0.00000 [K] +/-            0.00000 [K]

Average Cation Intra bonddipole-bonddipole Coulomb energy:
====================================
	Block[ 0]            0.00000 [K]
	Block[ 1]            0.00000 [K]
	Block[ 2]            0.00000 [K]
	Block[ 3]            0.00000 [K]
	Block[ 4]            0.00000 [K]
	------------------------------------------------------------------------------
	Average              0.00000 [K] +/-            0.00000 [K]

Average Host-Host energy:
=========================
	Block[ 0] -4121658.27489     Van der Waals: 945159.16492       Coulomb: -5066817.43981     [K]
	Block[ 1] -4121408.14221     Van der Waals: 945626.92608       Coulomb: -5067035.06830     [K]
	Block[ 2] -4121029.91734     Van der Waals: 945466.84713       Coulomb: -5066496.76447     [K]
	Block[ 3] -4121822.41704     Van der Waals: 946279.23774       Coulomb: -5068101.65479     [K]
	Block[ 4] -4121760.19272     Van der Waals: 945644.02947       Coulomb: -5067404.22219     [K]
	------------------------------------------------------------------------------
	Average   -4121535.78884     Van der Waals: 945635.241070      Coulomb: -5067171.02991     [K]
	      +/- 402.14425                     +/- 508.047100              +/- 764.93451          [K]

Average Adsorbate-Adsorbate energy:
===================================
	Block[ 0] -4213.22876        Van der Waals: -4152.30060        Coulomb: -60.92816          [K]
	Block[ 1] -3475.88282        Van der Waals: -3457.60739        Coulomb: -18.27543          [K]
	Block[ 2] -2245.09264        Van der Waals: -2233.70503        Coulomb: -11.38761          [K]
	Block[ 3] -1718.58555        Van der Waals: -1710.19764        Coulomb: -8.38792           [K]
	Block[ 4] -3072.16051        Van der Waals: -3018.37365        Coulomb: -53.78685          [K]
	------------------------------------------------------------------------------
	Average   -2944.99006        Van der Waals: -2914.436864       Coulomb: -30.55319          [K]
	      +/- 1225.90707                    +/- 1202.320765             +/- 30.86111           [K]

Average Cation-Cation energy:
=============================
	Block[ 0] 0.00000            Van der Waals: 0.00000            Coulomb: 0.00000            [K]
	Block[ 1] 0.00000            Van der Waals: 0.00000            Coulomb: 0.00000            [K]
	Block[ 2] 0.00000            Van der Waals: 0.00000            Coulomb: 0.00000            [K]
	Block[ 3] 0.00000            Van der Waals: 0.00000            Coulomb: 0.00000            [K]
	Block[ 4] 0.00000            Van der Waals: 0.00000            Coulomb: 0.00000            [K]
	------------------------------------------------------------------------------
	Average   0.00000            Van der Waals: 0.000000           Coulomb: 0.00000            [K]
	      +/- 0.00000                       +/- 0.000000                +/- 0.00000            [K]

Average Host-Adsorbate energy:
==============================
	Block[ 0] -47309.74625       Van der Waals: -46932.19982       Coulomb: -377.54644         [K]
	Block[ 1] -48370.18163       Van der Waals: -48096.12288       Coulomb: -274.05875         [K]
	Block[ 2] -49352.10409       Van der Waals: -49126.04455       Coulomb: -226.05954         [K]
	Block[ 3] -50995.72673       Van der Waals: -50847.67303       Coulomb: -148.05370         [K]
	Block[ 4] -48758.38360       Van der Waals: -48396.59852       Coulomb: -361.78507         [K]
	------------------------------------------------------------------------------
	Average   -48957.22846       Van der Waals: -48679.727760      Coulomb: -277.50070         [K]
	      +/- 1689.68838                    +/- 1796.245342             +/- 118.63555          [K]

Average Host-Cation energy:
===========================
	Block[ 0] 0.00000            Van der Waals: 0.00000            Coulomb: 0.00000            [K]
	Block[ 1] 0.00000            Van der Waals: 0.00000            Coulomb: 0.00000            [K]
	Block[ 2] 0.00000            Van der Waals: 0.00000            Coulomb: 0.00000            [K]
	Block[ 3] 0.00000            Van der Waals: 0.00000            Coulomb: 0.00000            [K]
	Block[ 4] 0.00000            Van der Waals: 0.00000            Coulomb: 0.00000            [K]
	------------------------------------------------------------------------------
	Average   0.00000            Van der Waals: 0.000000           Coulomb: 0.00000            [K]
	      +/- 0.00000                       +/- 0.000000                +/- 0.00000            [K]

Average Adsorbate-Cation energy:
================================
	Block[ 0] 0.00000            Van der Waals: 0.00000            Coulomb: 0.00000            [K]
	Block[ 1] 0.00000            Van der Waals: 0.00000            Coulomb: 0.00000            [K]
	Block[ 2] 0.00000            Van der Waals: 0.00000            Coulomb: 0.00000            [K]
	Block[ 3] 0.00000            Van der Waals: 0.00000            Coulomb: 0.00000            [K]
	Block[ 4] 0.00000            Van der Waals: 0.00000            Coulomb: 0.00000            [K]
	------------------------------------------------------------------------------
	Average   0.00000            Van der Waals: 0.000000           Coulomb: 0.00000            [K]
	      +/- 0.00000                       +/- 0.000000                +/- 0.00000            [K]

Host polarization energy:
=======================
	Block[ 0]            0.00000 [K]
	Block[ 1]            0.00000 [K]
	Block[ 2]            0.00000 [K]
	Block[ 3]            0.00000 [K]
	Block[ 4]            0.00000 [K]
	------------------------------------------------------------------------------
	Average              0.00000 [K] +/-            0.00000 [K]

Adsorbate polarization energy:
=======================
	Block[ 0]            0.00000 [K]
	Block[ 1]            0.00000 [K]
	Block[ 2]            0.00000 [K]
	Block[ 3]            0.00000 [K]
	Block[ 4]            0.00000 [K]
	------------------------------------------------------------------------------
	Average              0.00000 [K] +/-            0.00000 [K]

Cation polarization energy:
=======================
	Block[ 0]            0.00000 [K]
	Block[ 1]            0.00000 [K]
	Block[ 2]            0.00000 [K]
	Block[ 3]            0.00000 [K]
	Block[ 4]            0.00000 [K]
	------------------------------------------------------------------------------
	Average              0.00000 [K] +/-            0.00000 [K]

Host back-polarization energy:
=======================
	Block[ 0]            0.00000 [K]
	Block[ 1]            0.00000 [K]
	Block[ 2]            0.00000 [K]
	Block[ 3]            0.00000 [K]
	Block[ 4]            0.00000 [K]
	------------------------------------------------------------------------------
	Average              0.00000 [K] +/-            0.00000 [K]

Adsorbate back-polarization energy:
=======================
	Block[ 0]            0.00000 [K]
	Block[ 1]            0.00000 [K]
	Block[ 2]            0.00000 [K]
	Block[ 3]            0.00000 [K]
	Block[ 4]            0.00000 [K]
	------------------------------------------------------------------------------
	Average              0.00000 [K] +/-            0.00000 [K]

Cation back-polarization energy:
=======================
	Block[ 0]            0.00000 [K]
	Block[ 1]            0.00000 [K]
	Block[ 2]            0.00000 [K]
	Block[ 3]            0.00000 [K]
	Block[ 4]            0.00000 [K]
	------------------------------------------------------------------------------
	Average              0.00000 [K] +/-            0.00000 [K]

Tail-correction energy:
=======================
	Block[ 0]            0.00000 [K]
	Block[ 1]            0.00000 [K]
	Block[ 2]            0.00000 [K]
	Block[ 3]            0.00000 [K]
	Block[ 4]            0.00000 [K]
	------------------------------------------------------------------------------
	Average              0.00000 [K] +/-            0.00000 [K]

Distance-constraints energy:
=======================
	Block[ 0]            0.00000 [K]
	Block[ 1]            0.00000 [K]
	Block[ 2]            0.00000 [K]
	Block[ 3]            0.00000 [K]
	Block[ 4]            0.00000 [K]
	------------------------------------------------------------------------------
	Average              0.00000 [K] +/-            0.00000 [K]

Angle-constraints energy:
=======================
	Block[ 0]            0.00000 [K]
	Block[ 1]            0.00000 [K]
	Block[ 2]            0.00000 [K]
	Block[ 3]            0.00000 [K]
	Block[ 4]            0.00000 [K]
	------------------------------------------------------------------------------
	Average              0.00000 [K] +/-            0.00000 [K]

Dihedral-constraints energy:
=======================
	Block[ 0]            0.00000 [K]
	Block[ 1]            0.00000 [K]
	Block[ 2]            0.00000 [K]
	Block[ 3]            0.00000 [K]
	Block[ 4]            0.00000 [K]
	------------------------------------------------------------------------------
	Average              0.00000 [K] +/-            0.00000 [K]

Inversion-bend constraints energy:
=======================
	Block[ 0]            0.00000 [K]
	Block[ 1]            0.00000 [K]
	Block[ 2]            0.00000 [K]
	Block[ 3]            0.00000 [K]
	Block[ 4]            0.00000 [K]
	------------------------------------------------------------------------------
	Average              0.00000 [K] +/-            0.00000 [K]

Out-of-plane-distance constraints energy:
=======================
	Block[ 0]            0.00000 [K]
	Block[ 1]            0.00000 [K]
	Block[ 2]            0.00000 [K]
	Block[ 3]            0.00000 [K]
	Block[ 4]            0.00000 [K]
	------------------------------------------------------------------------------
	Average              0.00000 [K] +/-            0.00000 [K]

Exclusion-constraints energy:
=======================
	Block[ 0]            0.00000 [K]
	Block[ 1]            0.00000 [K]
	Block[ 2]            0.00000 [K]
	Block[ 3]            0.00000 [K]
	Block[ 4]            0.00000 [K]
	------------------------------------------------------------------------------
	Average              0.00000 [K] +/-            0.00000 [K]

Total energy:
=============
	Block[ 0]     -3658754.15652 [K]
	Block[ 1]     -3658867.25377 [K]
	Block[ 2]     -3658539.01902 [K]
	Block[ 3]     -3660668.35409 [K]
	Block[ 4]     -3659621.85777 [K]
	------------------------------------------------------------------------------
	Average       -3659290.12823 [K] +/-         1082.24925 [K]

Number of molecules:
====================

Component 0 [benzene]
-------------------------------------------------------------
	Block[ 0] 16.00000           [-]
	Block[ 1] 16.00000           [-]
	Block[ 2] 16.00000           [-]
	Block[ 3] 16.00000           [-]
	Block[ 4] 16.00000           [-]
	------------------------------------------------------------------------------
	Average loading absolute                             16.0000000000 +/-       0.0000000000 [-]
	Average loading absolute [molecules/unit cell]       16.0000000000 +/-       0.0000000000 [-]
	Average loading absolute [mol/kg framework]                  2.0037828214 +/-       0.0000000000 [-]
	Average loading absolute [milligram/gram framework]        156.3905202798 +/-       0.0000000000 [-]
	Average loading absolute [cm^3 (STP)/gr framework]          44.9127395614 +/-       0.0000000000 [-]
	Average loading absolute [cm^3 (STP)/cm^3 framework]        14.7821921906 +/-       0.0000000000 [-]

	Block[ 0] 16.00000           [-]
	Block[ 1] 16.00000           [-]
	Block[ 2] 16.00000           [-]
	Block[ 3] 16.00000           [-]
	Block[ 4] 16.00000           [-]
	------------------------------------------------------------------------------
	Average loading excess                             16.0000000000 +/-       0.0000000000 [-]
	Average loading excess [molecules/unit cell]       16.0000000000 +/-       0.0000000000 [-]
	Average loading excess [mol/kg framework]                    2.0037828214 +/-       0.0000000000 [-]
	Average loading excess [milligram/gram framework]          156.3905202798 +/-       0.0000000000 [-]
	Average loading excess [cm^3 (STP)/gr framework]            44.9127395614 +/-       0.0000000000 [-]
	Average loading excess [cm^3 (STP)/cm^3 framework]          14.7821921906 +/-       0.0000000000 [-]


Average Widom Rosenbluth factor:
================================
	Block[ 0] 0 [-]
	Block[ 1] 0 [-]
	Block[ 2] 0 [-]
	Block[ 3] 0 [-]
	Block[ 4] 0 [-]
	------------------------------------------------------------------------------
	[benzene] Average Widom Rosenbluth-weight:   0 +/- 0.000000 [-]

Average Widom chemical potential:
=================================
	Block[ 0] 0 [-]
	Block[ 1] 0 [-]
	Block[ 2] 0 [-]
	Block[ 3] 0 [-]
	Block[ 4] 0 [-]
	------------------------------------------------------------------------------
	[benzene] Average chemical potential:   0 +/- 0.000000 [K]

Average Widom Ideal-gas contribution:
=====================================
	Block[ 0] 0 [-]
	Block[ 1] 0 [-]
	Block[ 2] 0 [-]
	Block[ 3] 0 [-]
	Block[ 4] 0 [-]
	------------------------------------------------------------------------------
	[benzene] Average Widom Ideal-gas chemical potential:   0 +/- 0.000000 [-]

Average Widom excess contribution:
==================================
	Block[ 0] 0 [-]
	Block[ 1] 0 [-]
	Block[ 2] 0 [-]
	Block[ 3] 0 [-]
	Block[ 4] 0 [-]
	------------------------------------------------------------------------------
	[benzene] Average Widom excess chemical potential:   0 +/- 0.000000 [-]

Average Gibbs Widom Rosenbluth factor:
======================================
	Block[ 0] 0 [-]
	Block[ 1] 0 [-]
	Block[ 2] 0 [-]
	Block[ 3] 0 [-]
	Block[ 4] 0 [-]
	------------------------------------------------------------------------------
	[benzene] Average Gibbs Widom Rosenbluth-weight:   0 +/- 0.000000 [-]

Average Gibbs Widom chemical potential:
=======================================
	Block[ 0] 0 [-]
	Block[ 1] 0 [-]
	Block[ 2] 0 [-]
	Block[ 3] 0 [-]
	Block[ 4] 0 [-]
	------------------------------------------------------------------------------
	[benzene] Average Gibbs chemical potential:   0 +/- 0.000000 [K]

Average Gibbs Widom Ideal-gas contribution:
===========================================
	Block[ 0] 0 [-]
	Block[ 1] 0 [-]
	Block[ 2] 0 [-]
	Block[ 3] 0 [-]
	Block[ 4] 0 [-]
	------------------------------------------------------------------------------
	[benzene] Average Gibbs Ideal-gas chemical potential:   0 +/- 0.000000 [-]

Average Gibbs Widom excess contribution:
===========================================
	Block[ 0] 0 [-]
	Block[ 1] 0 [-]
	Block[ 2] 0 [-]
	Block[ 3] 0 [-]
	Block[ 4] 0 [-]
	------------------------------------------------------------------------------
	[benzene] Average Gibbs excess chemical potential:   0 +/- 0.000000 [-]

Average Henry coefficient:
==========================
	Block[ 0] 0 [mol/kg/Pa]
	Block[ 1] 0 [mol/kg/Pa]
	Block[ 2] 0 [mol/kg/Pa]
	Block[ 3] 0 [mol/kg/Pa]
	Block[ 4] 0 [mol/kg/Pa]
	------------------------------------------------------------------------------
	[benzene] Average Henry coefficient:  0 +/- 0 [mol/kg/Pa]

Average adsorption energy <U_gh>_1-<U_h>_0 obtained from Widom-insertion:
(Note: the total heat of adsorption is dH=<U_gh>_1-<U_h>_0 - <U_g> - RT)
=========================================================================

Simulation finished,  0 warnings


Wed May 19 01:23:30 2021
Simulation finished on Wednesday, May 19.
The end time was 01:23 AM.

