Compiler and run-time data
===========================================================================
RASPA 1.8-0
Compiled as a 64-bits application
Compiler: gcc 4.2.1 (Based on Apple Inc. build 5658) (LLVM build 2336.11.00)
Compile Date = Apr 18 2013, Compile Time = 10:46:58

Thu Apr 18 12:06:34 2013
Simulation started on Thursday, April 18.
The start time was 12:06 PM.

Cpu data:    x86_64
Cpu Model:   MacPro5,1
Host name:   server.darkwing.nl
OS release:  12.3.0
OS type:     Darwin
OS version:  12D78


Simulation
===========================================================================
Dimensions: 3
Random number seed: 1366279593
RASPA directory set to: /Users/dubbelda/RASPA/simulations/
String appended to output-files: 
Number of cycles: 1
Number of initializing cycles: 0
Number of equilibration cycles: 0
Print every: 1
Triclinic boundary condition applied
Timestep: 0.000500
Initialization Ensemble: NPT (constant number of particles N, constant average pressure P, constant average temperature T)
Production run ensemble: NPT (constant number of particles N, constant average pressure P, constant average temperature T)
	Degrees of freedom:                        432
	Translational Degrees of freedom:          432
	Rotational Degrees of freedom:             0
	Degrees of freedom Framework:              432


Mutual consistent basic set of units:
======================================
Unit of temperature: Kelvin
Unit of length:      1e-10 [m]
Unit of time:        1e-12 [s]
Unit of mass:        1.66054e-27 [kg]
Unit of charge:      1.60218e-19 [C/particle]

Derived units and their conversion factors:
===========================================
Unit of energy:              1.66054e-23 [J]
Unit of force:               1.66054e-13 [N]
Unit of pressure:            1.66054e+07 [Pa]
Unit of velocity:            100 [m/s]
Unit of acceleration:        1e-08 [m^2/s]
Unit of diffusion:           1e-08 [m^2/s]
Unit of dipole moment:       1.60218e-29 [C.m]
Unit of electric potential:  0.000103643 [V]
Unit of electric field:      1.03643e+06 [V]
Unit of polarizability:      1.54587e-35 [-]
Unit of Coulomb potential:   167101.0800066561  [K]
Unit of dielectric constant: 0.0000154587       [s^2 C^2/(kg m^3)]
Unit of wave vectors:        5.3088374589       [cm^1]
Boltzmann constant:          0.8314464919       [-]

Internal conversion factors:
===========================================
Energy to Kelvin:                                    1.2027242847
FH correction factor                                 2.0211930949
Heat capacity conversion factor:                    10.0000088723
From Debye to internal units:                        4.8032067991
Isothermal compressibility conversion factor:        0.0000000602

Energy conversion factors:
===========================================
From mdyne/A to kcal/mol/A^2:           143.933
From mdyne/A to kj/mol/A^2:             602.214
From mdyne/A to K/A^2:                  72429.7
From mdyne A/rad^2 to kcal/mol/deg^2:   0.0438444


Properties computed
===========================================================================
Movies: yes
	Movie snapshots are appended to file every 1 cycles
Radial Distribution Function: no
Number of molecules GCMC histogram: no
Histogram of the molecule positions: no
Free energy profiles: no
Pore Size Distribution Function: no
End-to-end distance: no
Histogram of the energy of the system: no
Compute thermodynamic factors: no
Framework spacing histograms: no
Residence times histograms: no
Distance histograms: no
Bend Angle histograms: no
Dihedral angle histograms: no
Angle between planes histograms: no
Molecule properties: no
Infra-red spectra: no
Mean-squared displacement using modified order-N algorithm: no
Velocity-autocorrelation function modified order-N algorithm: no
Rotational velocity-autocorrelation function modified order-N algorithm: no
Molecular orientation-autocorrelation function modified order-N algorithm: no
Mean-squared displacement (conventional algorithm): no
Velocity-autocorrelation function (conventional algorithm): no
3D density grid for adsorbates: no
Compute cation an/or adsorption sites: no
dcTST snapshots: no
Compute pressure and stress: no


VTK
===========================================================================
VTK fractional-range position framework atoms: [-0.001000,1.001000] [-0.001000,1.001000] [-0.001000,1.001000]
VTK fractional-range position framework bonds: [-0.151000,1.151000] [-0.151000,1.151000] [-0.151000,1.151000]
VTK fractional-range com-position adsorbate molecules: [-0.101000,1.101000] [-0.101000,1.101000] [-0.101000,1.101000]
VTK fractional-range com-position cation molecules: [-0.101000,1.101000] [-0.101000,1.101000] [-0.101000,1.101000]
	3D free energy grid made for the full simulation-cell


Thermo/Baro-stat NHC parameters
===========================================================================
External temperature: 300.000000 [K]
Beta: 0.004009 [energy unit]
External Pressure: 0.000000 [Pa]


Thermostat chain-length: 3
Timescale parameter for thermostat: 0.150000 [ps]
Barostat chain-length:   3
Timescale parameter for barostat:   0.150000 [ps]

Number of Yoshida-Suzuki decomposition steps: 5
Number of respa steps: 5


Method and settings for electrostatics
===============================================================================
Dielectric constant of the medium : 1.000000
Charge from charge-equilibration: no
Ewald summation is used (exact solution of a periodic system)
Relative precision                : 1e-10
Alpha convergence parameter       : 0.363526
kvec (x,y,z)                      : 8 8 8


CFC-RXMC parameters
===========================================================================
Number of reactions: 0


Rattle parameters
===========================================================================
Distance constraint type: r^2-r^2_0
Bend angle constraint type: theta-theta_0
Dihedral angle constraint type: phi-phi_0
Inversion-bend angle constraint type: chi-chi_0
Out-of-plane distance constraint type: r-r_0


Spectra parameters
===========================================================================
Compute normal modes: no


Minimization parameters
===========================================================================
Generalized coordinates are: Cartesian center-of-mass, elements of the orientational matrix p1,p2,p3 and strain
Potential derivatives are evaluated: analytically
Translation of the system is removed from the generalized Hessian: no
Rotation of the system is removed from the generalized Hessian: no
Maximum step-length: 0.3
Convergence factor: 1
Maximum number of minimization steps: 10000
Use gradients in the line-minimizations: yes
RMS gradient tolerance: 1e-06
Maximum gradient tolerance: 1e-06

Distance constraints: 0
Angle constraints: 0
Dihedral constraints: 0

Improper dihedral constraints: 0

Inversion-bend constraints: 0

Out-of-plane constraints: 0

Harmonic distance constraints: 0
Harmonic angle constraints: 0
Harmonic dihedral constraints: 0

Dihedral mid-point measurements: 0

Number of fixed framework atoms: 0  (active: 144)
fixed atom-list: 
Number of active framework atoms: 144  (fixed: 0)
active atom-list: 

Fixed adsorbate atoms:  
Fixed adsorbate groups (center-of-mass):  
Fixed adsorbate groups (orientation):  

Fixed cation atoms:  
Fixed cation groups (center-of-mass):  
Fixed cation groups (orientation):  


dcTST parameters
===========================================================================
Free energy profiles computed: no
Free energy profiles written every 5000 cycles
Free energy mapping: mapped to a,b,c-coordinates
BarrierPosition:       0.0000000000       0.0000000000       0.0000000000
BarrierNormal:         0.0000000000       0.0000000000       0.0000000000
Start with a molecule on top of the barrier: no
Maximum distance to barrier (e.g. distance to minumum free energy):       0.0000000000 [A]
Maximum trajectory time:      10.0000000000 [ps]
Each configuration is used with 5 different initial velocities


Cbmc parameters
===========================================================================
Biasing method: using only the VDW part
Number of trial positions:                             10
Number of trial positions coupled Torsion-selection:   100
Number of trial position for the first bead:           10
Number of trial moves per open bead:                   150
Target acceptance ratio small-mc scheme:               0.400000
Energy overlap criteria:                               100000
Minimal Rosenbluth factor:                             1e-150


Pseudo atoms: 16
===========================================================================
Pseudo Atom[   0] Name UNIT     Oxidation: +0       Element: H    pdb-name: H    Scat. Types:   1   1 Mass=1.000000000  B-factor:1.000   
                 Charge=1.000000000          Polarization=0.000000000  [A^3] (considered a charged atom and no polarization)  Interactions: yes
                 Anisotropic factor:    0.000 [-] (Relative), Radius:    1.000 [A], Framework-atom:  no
Pseudo Atom[   1] Name O        Oxidation: +0       Element: O    pdb-name: O    Scat. Types:   9   8 Mass=15.999400000 B-factor:1.000   
                 Charge=-0.550000000         Polarization=0.000000000  [A^3] (considered a charged atom and no polarization)  Interactions: yes
                 Anisotropic factor:    0.000 [-] (Relative), Radius:    0.640 [A], Framework-atom: yes (charge from pseudo-atoms file)
Pseudo Atom[   2] Name Oa       Oxidation: +0       Element: O    pdb-name: O    Scat. Types:   9   8 Mass=15.999400000 B-factor:1.000   
                 Charge=-0.550000000         Polarization=0.000000000  [A^3] (considered a charged atom and no polarization)  Interactions:  no
                 Anisotropic factor:    0.000 [-] (Relative), Radius:    0.640 [A], Framework-atom:  no
Pseudo Atom[   3] Name Si       Oxidation: +0       Element: Si   pdb-name: Si   Scat. Types:  15  14 Mass=28.085500000 B-factor:1.000   
                 Charge=1.100000000          Polarization=0.000000000  [A^3] (considered a charged atom and no polarization)  Interactions: yes
                 Anisotropic factor:    0.000 [-] (Relative), Radius:    1.140 [A], Framework-atom: yes (charge from pseudo-atoms file)
Pseudo Atom[   4] Name Al       Oxidation: +0       Element: Si   pdb-name: Si   Scat. Types:  15  14 Mass=28.085500000 B-factor:1.000   
                 Charge=1.100000000          Polarization=0.000000000  [A^3] (considered a charged atom and no polarization)  Interactions:  no
                 Anisotropic factor:    0.000 [-] (Relative), Radius:    1.140 [A], Framework-atom:  no
Pseudo Atom[   5] Name Ar       Oxidation: +0       Element: Ar   pdb-name: Ar   Scat. Types:  19  18 Mass=39.948000000 B-factor:1.000   
                 Charge=0.000000000          Polarization=0.000000000  [A^3] (considered a chargeless atom and no polarization)  Interactions: yes
                 Anisotropic factor:    0.000 [-] (Relative), Radius:    1.000 [A], Framework-atom:  no
Pseudo Atom[   6] Name CH4_sp3  Oxidation: +0       Element: C    pdb-name: C    Scat. Types:   7   6 Mass=16.042460000 B-factor:1.000   
                 Charge=0.000000000          Polarization=0.000000000  [A^3] (considered a chargeless atom and no polarization)  Interactions: yes
                 Anisotropic factor:    0.000 [-] (Relative), Radius:    1.000 [A], Framework-atom:  no
Pseudo Atom[   7] Name CH3_sp3  Oxidation: +0       Element: C    pdb-name: C    Scat. Types:   7   6 Mass=15.034520000 B-factor:1.000   
                 Charge=0.000000000          Polarization=0.000000000  [A^3] (considered a chargeless atom and no polarization)  Interactions: yes
                 Anisotropic factor:    0.000 [-] (Relative), Radius:    1.000 [A], Framework-atom:  no
Pseudo Atom[   8] Name CH2_sp3  Oxidation: +0       Element: C    pdb-name: C    Scat. Types:   7   6 Mass=14.026580000 B-factor:1.000   
                 Charge=0.000000000          Polarization=0.000000000  [A^3] (considered a chargeless atom and no polarization)  Interactions: yes
                 Anisotropic factor:    0.000 [-] (Relative), Radius:    1.000 [A], Framework-atom:  no
Pseudo Atom[   9] Name CH_sp3   Oxidation: +0       Element: C    pdb-name: C    Scat. Types:   7   6 Mass=13.018640000 B-factor:1.000   
                 Charge=0.000000000          Polarization=0.000000000  [A^3] (considered a chargeless atom and no polarization)  Interactions: yes
                 Anisotropic factor:    0.000 [-] (Relative), Radius:    1.000 [A], Framework-atom:  no
Pseudo Atom[  10] Name C_sp3    Oxidation: +0       Element: C    pdb-name: C    Scat. Types:   7   6 Mass=12.000000000 B-factor:1.000   
                 Charge=0.000000000          Polarization=0.000000000  [A^3] (considered a chargeless atom and no polarization)  Interactions:  no
                 Anisotropic factor:    0.000 [-] (Relative), Radius:    1.000 [A], Framework-atom:  no
Pseudo Atom[  11] Name C_co2    Oxidation: +0       Element: C    pdb-name: C    Scat. Types:   7   6 Mass=12.000000000 B-factor:1.000   
                 Charge=0.700000000          Polarization=0.000000000  [A^3] (considered a charged atom and no polarization)  Interactions: yes
                 Anisotropic factor:    0.000 [-] (Relative), Radius:    0.720 [A], Framework-atom:  no
Pseudo Atom[  12] Name O_co2    Oxidation: +0       Element: O    pdb-name: O    Scat. Types:   9   8 Mass=15.999400000 B-factor:1.000   
                 Charge=-0.350000000         Polarization=0.000000000  [A^3] (considered a charged atom and no polarization)  Interactions: yes
                 Anisotropic factor:    0.000 [-] (Relative), Radius:    0.680 [A], Framework-atom:  no
Pseudo Atom[  13] Name Ow       Oxidation: +0       Element: O    pdb-name: O    Scat. Types:   9   8 Mass=15.999400000 B-factor:1.000   
                 Charge=0.000000000          Polarization=0.000000000  [A^3] (considered a chargeless atom and no polarization)  Interactions: yes
                 Anisotropic factor:    0.000 [-] (Relative), Radius:    0.500 [A], Framework-atom:  no
Pseudo Atom[  14] Name Hw       Oxidation: +0       Element: H    pdb-name: H    Scat. Types:   1   1 Mass=1.008000000  B-factor:1.000   
                 Charge=0.241000000          Polarization=0.000000000  [A^3] (considered a charged atom and no polarization)  Interactions:  no
                 Anisotropic factor:    0.000 [-] (Relative), Radius:    1.000 [A], Framework-atom:  no
Pseudo Atom[  15] Name Lw       Oxidation: +0       Element: -    pdb-name: L    Scat. Types:   0   3 Mass=0.000000000  B-factor:1.000   
                 Charge=-0.241000000         Polarization=0.000000000  [A^3] (considered a charged atom and no polarization)  Interactions:  no
                 Anisotropic factor:    0.000 [-] (Relative), Radius:    1.000 [A], Framework-atom:  no


Forcefield: Nicholas
===========================================================================
CutOff VDW : 12.000000 (144.000000)
CutOff VDW switching on: 10.800000 (116.640000)
CutOff charge-charge : 12.000000 (144.000000)
CutOff charge-charge switching on: 7.800000 (60.840000)
CutOff charge-bonddipole : 12.000000 (144.000000)
CutOff charge-bondipole switching on: 8.400000 (70.560000)
CutOff bonddipole-bonddipole : 12.000000 (144.000000)
CutOff bonddipole-bondipole switching on: 9.000000 (81.000000)
Polarization is neglected
All potentials are shifted to zero at the Cutoff

General mixing rule: Lorentz-Berthelot mixing rules are used FIRST for cross terms
0 cross terms are overwritten using the individual mixing rules from the file 'force_field_mixing_rules.def'
and then 13 terms are overwritten using the specific interactions from the file 'force_field.def'

The force field and all the interactions:
   UNIT -    UNIT [LENNARD_JONES] p_0/k_B:   1.00000 [K], p_1: 1.00000 [A], shift/k_B:  -0.00000134 [K], tailcorrection: no
      O -       O [LENNARD_JONES] p_0/k_B:  29.43383 [K], p_1: 3.06222 [A], shift/k_B:  -0.03250255 [K], tailcorrection: no
      O -      Si [LENNARD_JONES] p_0/k_B:  49.05711 [K], p_1: 3.48335 [A], shift/k_B:  -0.11732606 [K], tailcorrection: no
      O -      Ar [LENNARD_JONES] p_0/k_B: 107.70000 [K], p_1: 3.15000 [A], shift/k_B:  -0.14089949 [K], tailcorrection: no
      O - CH4_sp3 [LENNARD_JONES] p_0/k_B: 115.00000 [K], p_1: 3.47000 [A], shift/k_B:  -0.26877769 [K], tailcorrection: no
      O - CH3_sp3 [LENNARD_JONES] p_0/k_B:  93.00000 [K], p_1: 3.48000 [A], shift/k_B:  -0.22114266 [K], tailcorrection: no
      O - CH2_sp3 [LENNARD_JONES] p_0/k_B:  60.50000 [K], p_1: 3.58000 [A], shift/k_B:  -0.17049818 [K], tailcorrection: no
      O -  CH_sp3 [LENNARD_JONES] p_0/k_B:  40.00000 [K], p_1: 3.92000 [A], shift/k_B:  -0.19418731 [K], tailcorrection: no
      O -   C_co2 [LENNARD_JONES] p_0/k_B:  50.20000 [K], p_1: 2.78150 [A], shift/k_B:  -0.03113747 [K], tailcorrection: no
      O -   O_co2 [LENNARD_JONES] p_0/k_B:  84.93000 [K], p_1: 2.91950 [A], shift/k_B:  -0.07043596 [K], tailcorrection: no
      O -      Ow [LENNARD_JONES] p_0/k_B:  91.50000 [K], p_1: 3.04850 [A], shift/k_B:  -0.09835446 [K], tailcorrection: no
     Si -      Si [LENNARD_JONES] p_0/k_B:  81.76308 [K], p_1: 3.96239 [A], shift/k_B:  -0.42335835 [K], tailcorrection: no
     Si -      Ow [LENNARD_JONES] p_0/k_B:  85.63950 [K], p_1: 3.52900 [A], shift/k_B:  -0.22144994 [K], tailcorrection: no
     Ar -      Ar [LENNARD_JONES] p_0/k_B: 124.07000 [K], p_1: 3.38000 [A], shift/k_B:  -0.24769804 [K], tailcorrection: no
     Ar - CH4_sp3 [LENNARD_JONES] p_0/k_B: 140.23229 [K], p_1: 3.55000 [A], shift/k_B:  -0.37575039 [K], tailcorrection: no
     Ar - CH3_sp3 [LENNARD_JONES] p_0/k_B: 115.75647 [K], p_1: 3.57000 [A], shift/k_B:  -0.32079374 [K], tailcorrection: no
     Ar - CH2_sp3 [LENNARD_JONES] p_0/k_B:  83.35418 [K], p_1: 3.67000 [A], shift/k_B:  -0.27260937 [K], tailcorrection: no
     Ar -  CH_sp3 [LENNARD_JONES] p_0/k_B:  45.92592 [K], p_1: 4.02500 [A], shift/k_B:  -0.26122023 [K], tailcorrection: no
     Ar -   C_co2 [LENNARD_JONES] p_0/k_B:  57.87823 [K], p_1: 3.09000 [A], shift/k_B:  -0.06747021 [K], tailcorrection: no
     Ar -   O_co2 [LENNARD_JONES] p_0/k_B:  99.00268 [K], p_1: 3.21500 [A], shift/k_B:  -0.14640121 [K], tailcorrection: no
     Ar -      Ow [LENNARD_JONES] p_0/k_B: 105.38620 [K], p_1: 3.23850 [A], shift/k_B:  -0.16279904 [K], tailcorrection: no
CH4_sp3 - CH4_sp3 [LENNARD_JONES] p_0/k_B: 158.50000 [K], p_1: 3.72000 [A], shift/k_B:  -0.56217796 [K], tailcorrection: no
CH4_sp3 - CH3_sp3 [LENNARD_JONES] p_0/k_B: 130.83577 [K], p_1: 3.74000 [A], shift/k_B:  -0.47921501 [K], tailcorrection: no
CH4_sp3 - CH2_sp3 [LENNARD_JONES] p_0/k_B:  94.21253 [K], p_1: 3.84000 [A], shift/k_B:  -0.40420524 [K], tailcorrection: no
CH4_sp3 -  CH_sp3 [LENNARD_JONES] p_0/k_B:  51.90857 [K], p_1: 4.19500 [A], shift/k_B:  -0.37827707 [K], tailcorrection: no
CH4_sp3 -   C_co2 [LENNARD_JONES] p_0/k_B:  65.41789 [K], p_1: 3.26000 [A], shift/k_B:  -0.10514776 [K], tailcorrection: no
CH4_sp3 -   O_co2 [LENNARD_JONES] p_0/k_B: 111.89951 [K], p_1: 3.38500 [A], shift/k_B:  -0.22538960 [K], tailcorrection: no
CH4_sp3 -      Ow [LENNARD_JONES] p_0/k_B: 119.11459 [K], p_1: 3.40850 [A], shift/k_B:  -0.25008586 [K], tailcorrection: no
CH3_sp3 - CH3_sp3 [LENNARD_JONES] p_0/k_B: 108.00000 [K], p_1: 3.76000 [A], shift/k_B:  -0.40842485 [K], tailcorrection: no
CH3_sp3 - CH2_sp3 [LENNARD_JONES] p_0/k_B:  77.76889 [K], p_1: 3.86000 [A], shift/k_B:  -0.34420794 [K], tailcorrection: no
CH3_sp3 -  CH_sp3 [LENNARD_JONES] p_0/k_B:  42.84857 [K], p_1: 4.21500 [A], shift/k_B:  -0.32127575 [K], tailcorrection: no
CH3_sp3 -   C_co2 [LENNARD_JONES] p_0/k_B:  54.00000 [K], p_1: 3.28000 [A], shift/k_B:  -0.09003849 [K], tailcorrection: no
CH3_sp3 -   O_co2 [LENNARD_JONES] p_0/k_B:  92.36883 [K], p_1: 3.40500 [A], shift/k_B:  -0.19274091 [K], tailcorrection: no
CH3_sp3 -      Ow [LENNARD_JONES] p_0/k_B:  98.32461 [K], p_1: 3.42850 [A], shift/k_B:  -0.21380771 [K], tailcorrection: no
CH2_sp3 - CH2_sp3 [LENNARD_JONES] p_0/k_B:  56.00000 [K], p_1: 3.96000 [A], shift/k_B:  -0.28891522 [K], tailcorrection: no
CH2_sp3 -  CH_sp3 [LENNARD_JONES] p_0/k_B:  30.85450 [K], p_1: 4.31500 [A], shift/k_B:  -0.26621710 [K], tailcorrection: no
CH2_sp3 -   C_co2 [LENNARD_JONES] p_0/k_B:  38.88444 [K], p_1: 3.38000 [A], shift/k_B:  -0.07763038 [K], tailcorrection: no
CH2_sp3 -   O_co2 [LENNARD_JONES] p_0/k_B:  66.51316 [K], p_1: 3.50500 [A], shift/k_B:  -0.16509673 [K], tailcorrection: no
CH2_sp3 -      Ow [LENNARD_JONES] p_0/k_B:  70.80181 [K], p_1: 3.52850 [A], shift/k_B:  -0.18292658 [K], tailcorrection: no
 CH_sp3 -  CH_sp3 [LENNARD_JONES] p_0/k_B:  17.00000 [K], p_1: 4.67000 [A], shift/k_B:  -0.23540268 [K], tailcorrection: no
 CH_sp3 -   C_co2 [LENNARD_JONES] p_0/k_B:  21.42429 [K], p_1: 3.73500 [A], shift/k_B:  -0.07784441 [K], tailcorrection: no
 CH_sp3 -   O_co2 [LENNARD_JONES] p_0/k_B:  36.64696 [K], p_1: 3.86000 [A], shift/k_B:  -0.16220080 [K], tailcorrection: no
 CH_sp3 -      Ow [LENNARD_JONES] p_0/k_B:  39.00990 [K], p_1: 3.88350 [A], shift/k_B:  -0.17905562 [K], tailcorrection: no
  C_co2 -   C_co2 [LENNARD_JONES] p_0/k_B:  27.00000 [K], p_1: 2.80000 [A], shift/k_B:  -0.01742667 [K], tailcorrection: no
  C_co2 -   O_co2 [LENNARD_JONES] p_0/k_B:  46.18441 [K], p_1: 2.92500 [A], shift/k_B:  -0.03873754 [K], tailcorrection: no
  C_co2 -      Ow [LENNARD_JONES] p_0/k_B:  49.16230 [K], p_1: 2.94850 [A], shift/k_B:  -0.04326293 [K], tailcorrection: no
  O_co2 -   O_co2 [LENNARD_JONES] p_0/k_B:  79.00000 [K], p_1: 3.05000 [A], shift/k_B:  -0.08516900 [K], tailcorrection: no
  O_co2 -      Ow [LENNARD_JONES] p_0/k_B:  84.09378 [K], p_1: 3.07350 [A], shift/k_B:  -0.09493210 [K], tailcorrection: no
     Ow -      Ow [LENNARD_JONES] p_0/k_B:  89.51600 [K], p_1: 3.09700 [A], shift/k_B:  -0.10577720 [K], tailcorrection: no


MoleculeDefinitions:
===========================================================================
No components defined in 'simulation.input'


Framework Status
===========================================================================
Lowenstein's rule obeyed by framework
	Framework is modelled as: flexible using the model of Nicholas
	==================================================================================

	Number of Bonds definitions: 1
	--------------------------------------------
	Bond interaction between [Si-O] using bond-type: HARMONIC_BOND (192 bonds)
	  args: 2   arg[0]=300724.776636 arg[1]=1.610000 

	Number of Urey-Bradley definitions: 1
	--------------------------------------------
	Urey-Bradley interaction between [Si-(O)-Si] using Urey-Bradley-type:HARMONIC_BOND (96 Urey-Bradleys)
	  args: 2   arg[0]=27488.737702 arg[1]=3.126100 

	Number of Bend definitions: 2
	--------------------------------------------
	Bend interaction between [O-Si-O] using bend-type: HARMONIC_COSINE_BEND (288 bends)
	  args: 2   arg[0]=69537.444166 arg[1]=109.500000 
	Bend interaction between [Si-O-Si] using bend-type: QUARTIC_BEND (96 bends)
	  args: 4   arg[0]=5462.505569 arg[1]=149.500000 arg[2]=-17157.805511 arg[3]=13351.672598 

	Number of Bend/Torsion cross-term definitions: 1
	--------------------------------------------
	Bend/Torsion cross-term interaction between [Si-O-Si-O] using bend/torsion-type:SMOOTHED_THREE_COSINE_DIHEDRAL (576 bend-torsions)
	  args: 3   arg[0]=0.000000 arg[1]=0.000000 arg[2]=-352.419700 


	Number of core/shells:                           0
	Number of bonds:                                 192
	Number of bond-dipoles:                          0
	Number of bends:                                 384
	Number of Urey-Bradleys:                         96
	Number of Inversion bends:                       0
	Number of Torsions:                              0
	Number of Improper Torsions:                     0
	Number of Out-of-planes:                         0
	Number of bond-bond cross terms:                 0
	Number of bond-bend cross terms:                 0
	Number of bend-bend cross terms:                 0
	Number of stretch-torsion cross terms:           0
	Number of bend-torsion cross terms:              576

	Number of charges:                               144
	Number of bonddipoles:                           0

	Number of Intra VDW:                             154752
	Number of Intra Coulomb charge-charge:           154752
	Number of Intra Coulomb charge-bonddipole:       0
	Number of Intra Coulomb bonddipoles:             0
	Number of excluded Intra VDW:                    696
	Number of excluded intra charge-charge:          576
	Number of excluded intra charge-bonddipole:      0
	Number of excluded intra bonddipole-bonddipole:  0


	Number of 1-2 intra-framework pairs: 192
	Number of 1-3 intra-framework pairs: 384
	Number of 1-4 intra-framework pairs: 768
	Number of 1-2,1-3 intra-framework pairs: 576
	Number of 1-2,1-3,1-4 intra-framework pairs: 1152
	Bond interactions are removed (excluded from VDW and Coulomb interactions)
	Bend interactions are removed (excluded from VDW and Coulomb interactions)
	Torsion interactions are *included* in the VDW and Coulomb interactions
	Remove12NeighboursFromVDWInteraction no
	Remove13NeighboursFromVDWInteraction no
	Remove14NeighboursFromVDWInteraction no
	Remove12NeighboursFromChargeChargeInteraction no
	Remove13NeighboursFromChargeChargeInteraction no
	Remove14NeighboursFromChargeChargeInteraction no
	Remove11NeighboursFromChargeBondDipoleInteraction no
	Remove12NeighboursFromChargeBondDipoleInteraction no
	Remove13NeighboursFromChargeBondDipoleInteraction no
	Remove14NeighboursFromChargeBondDipoleInteraction no
	Remove12NeighboursFromBondDipoleBondDipoleInteraction no
	Remove13NeighboursFromBondDipoleBondDipoleInteraction no
	Remove14NeighboursFromBondDipoleBondDipoleInteraction no
	InternalFrameworkLennardJonesInteractions yes


System Properties
===========================================================================
Unit cell size: 15.031000 15.031000 15.031000
Cell angles (radians)  alpha: 1.570796 beta: 1.570796 gamma: 1.570796
Cell angles (degrees)  alpha: 90.000000 beta: 90.000000 gamma: 90.000000
Number of unitcells [a]: 1
Number of unitcells [b]: 1
Number of unitcells [c]: 1

TRICLINIC Boundary conditions: alpha!=90 or beta!=90 or gamma!=90

Cartesian axis A is collinear with crystallographic axis a
Cartesian axis B is collinear with (axb)xA
Cartesian axis C is collinear with (axb)

lengths of cell vectors:
 15.03100  15.03100  15.03100
cosines of cell angles:
  0.00000   0.00000   0.00000
perpendicular cell widths:
 15.03100  15.03100  15.03100
volume of the cell:  3395.968274791001 (A^3)

Orthogonalization matrix Box
Transforms fractional coordinates abc into orthonormal Cartesian coordinates xyz
Deorthogonalization matrix InverseBox
Transforms orthonormal Cartesian coordinates xyz into fractional coordinates xyz

Box[0]:
	   15.031000000000     0.000000000000     0.000000000000
	    0.000000000000    15.031000000000     0.000000000000
	    0.000000000000     0.000000000000    15.031000000000

Inverse box[0]:
	    0.066529173042    -0.000000000000    -0.000000000000
	    0.000000000000     0.066529173042    -0.000000000000
	    0.000000000000     0.000000000000     0.066529173042


Unitcell box[0]:
	   15.031000000000     0.000000000000     0.000000000000
	    0.000000000000    15.031000000000     0.000000000000
	    0.000000000000     0.000000000000    15.031000000000

Unitcell inverse box[0]:
	    0.066529173042    -0.000000000000    -0.000000000000
	    0.000000000000     0.066529173042    -0.000000000000
	    0.000000000000     0.000000000000     0.066529173042

lengths of cell vectors (inverse box):
  0.06653   0.06653   0.06653
cosines of cell angles (inverse box):
 -0.00000  -0.00000  -0.00000
perpendicular cell widths (inverse):
  0.06653   0.06653   0.06653
volume of the cell:  3395.968274791001 (A^3)

Number of Replica Cells: 2 2 2
Replica Box:
	   30.062000000000     0.000000000000     0.000000000000
	    0.000000000000    30.062000000000     0.000000000000
	    0.000000000000     0.000000000000    30.062000000000

Shift of the Replica cells:
	[cell:  0]     0.000000000000     0.000000000000     0.000000000000
	[cell:  1]     0.000000000000     0.000000000000    15.031000000000
	[cell:  2]     0.000000000000    15.031000000000     0.000000000000
	[cell:  3]     0.000000000000    15.031000000000    15.031000000000
	[cell:  4]    15.031000000000     0.000000000000     0.000000000000
	[cell:  5]    15.031000000000     0.000000000000    15.031000000000
	[cell:  6]    15.031000000000    15.031000000000     0.000000000000
	[cell:  7]    15.031000000000    15.031000000000    15.031000000000

Framework is simulated as 'flexible'
Number of framework atoms: 144
Number of framework atoms in the unit cell: 144
Framework Mass:  2884.046400000005 [g/mol]
Framework Density:  1410.222460676310 [kg/m^3]    0.7091079796874 [cm^3/g]
Helium void fraction:    0.00000000
Available pore volume:    0.00000000 [A^3]    0.00000000 [cm^3/g]
Conversion factor from molecule/unit cell -> kmol/m^3: 0.488974, kmol/m^3 accesible pore volume: inf

Number Of Frameworks (per system): 1
----------------------------------------------------------------------
Framework name: RHO
Citation:
	author name:        'L.B. McCusker and Ch. Baerlocher'
	title:              'The effect of dehydration upon the crystal structure of zeolite rho'
	journal abbrev.:    'J. Solid State Chem.'
	first page:         812
	last page:          822
	year:               1984
	special details:    'Proceedings of the 6th International Zeolite Conference, Reno 1983'
Space group: 229
	Identifier: 529
	short international Hermann-Mauguin symbol: I m -3 m
	long international Hermann-Mauguin symbol: I 4/m -3 2/m
	Hall symbol: -I 4 2 3
	Number of lattice translations: 2 [ (0,0,0) (0.5,0.5,0.5) ]
	acentric/centric: acentric
	chiral: yes
	enantiomorphic: no
	number of operators: 96
		'x,y,z'
		'-x,-y,z'
		'-x,y,-z'
		'x,-y,-z'
		'z,x,y'
		'z,-x,-y'
		'-z,-x,y'
		'-z,x,-y'
		'y,z,x'
		'-y,z,-x'
		'y,-z,-x'
		'-y,-z,x'
		'y,x,-z'
		'-y,-x,-z'
		'y,-x,z'
		'-y,x,z'
		'x,z,-y'
		'-x,z,y'
		'-x,-z,-y'
		'x,-z,y'
		'z,y,-x'
		'z,-y,x'
		'-z,y,x'
		'-z,-y,-x'
		'-x,-y,-z'
		'x,y,-z'
		'x,-y,z'
		'-x,y,z'
		'-z,-x,-y'
		'-z,x,y'
		'z,x,-y'
		'z,-x,y'
		'-y,-z,-x'
		'y,-z,x'
		'-y,z,x'
		'y,z,-x'
		'-y,-x,z'
		'y,x,z'
		'-y,x,-z'
		'y,-x,-z'
		'-x,-z,y'
		'x,-z,-y'
		'x,z,y'
		'-x,z,-y'
		'-z,-y,x'
		'-z,y,-x'
		'z,-y,-x'
		'z,y,x'
		'x+1/2,y+1/2,z+1/2'
		'-x+1/2,-y+1/2,z+1/2'
		'-x+1/2,y+1/2,-z+1/2'
		'x+1/2,-y+1/2,-z+1/2'
		'z+1/2,x+1/2,y+1/2'
		'z+1/2,-x+1/2,-y+1/2'
		'-z+1/2,-x+1/2,y+1/2'
		'-z+1/2,x+1/2,-y+1/2'
		'y+1/2,z+1/2,x+1/2'
		'-y+1/2,z+1/2,-x+1/2'
		'y+1/2,-z+1/2,-x+1/2'
		'-y+1/2,-z+1/2,x+1/2'
		'y+1/2,x+1/2,-z+1/2'
		'-y+1/2,-x+1/2,-z+1/2'
		'y+1/2,-x+1/2,z+1/2'
		'-y+1/2,x+1/2,z+1/2'
		'x+1/2,z+1/2,-y+1/2'
		'-x+1/2,z+1/2,y+1/2'
		'-x+1/2,-z+1/2,-y+1/2'
		'x+1/2,-z+1/2,y+1/2'
		'z+1/2,y+1/2,-x+1/2'
		'z+1/2,-y+1/2,x+1/2'
		'-z+1/2,y+1/2,x+1/2'
		'-z+1/2,-y+1/2,-x+1/2'
		'-x+1/2,-y+1/2,-z+1/2'
		'x+1/2,y+1/2,-z+1/2'
		'x+1/2,-y+1/2,z+1/2'
		'-x+1/2,y+1/2,z+1/2'
		'-z+1/2,-x+1/2,-y+1/2'
		'-z+1/2,x+1/2,y+1/2'
		'z+1/2,x+1/2,-y+1/2'
		'z+1/2,-x+1/2,y+1/2'
		'-y+1/2,-z+1/2,-x+1/2'
		'y+1/2,-z+1/2,x+1/2'
		'-y+1/2,z+1/2,x+1/2'
		'y+1/2,z+1/2,-x+1/2'
		'-y+1/2,-x+1/2,z+1/2'
		'y+1/2,x+1/2,z+1/2'
		'-y+1/2,x+1/2,-z+1/2'
		'y+1/2,-x+1/2,-z+1/2'
		'-x+1/2,-z+1/2,y+1/2'
		'x+1/2,-z+1/2,-y+1/2'
		'x+1/2,z+1/2,y+1/2'
		'-x+1/2,z+1/2,-y+1/2'
		'-z+1/2,-y+1/2,x+1/2'
		'-z+1/2,y+1/2,-x+1/2'
		'z+1/2,-y+1/2,-x+1/2'
		'z+1/2,y+1/2,x+1/2'
Framework is simulated as 'flexible'
Shift: 0.000000 0.000000 0.000000
Number of framework atoms: 144
Number of asymmetric atoms: 3
Number of free framework atoms: 144
Number of fixed framework atoms: 0
Number of framework atoms in the unit cell: 144
Framework Mass:  2884.046400000005 [g/mol]
Framework Density:  1410.222460676310 [kg/m^3]
Framework has net charge: -0.000000
         largest charge : 1.100000
         smallest charge: -0.550000


Current Atom Status
===========================================================================
Number of framework atoms        : 144
Number of cations molecules      : 0
Number of adsorbate molecules    : 0
Pseudo Atoms    0 [    UNIT]:    0 atoms
Pseudo Atoms    1 [       O]:   96 atoms
Pseudo Atoms    2 [      Oa]:    0 atoms
Pseudo Atoms    3 [      Si]:   48 atoms
Pseudo Atoms    4 [      Al]:    0 atoms
Pseudo Atoms    5 [      Ar]:    0 atoms
Pseudo Atoms    6 [ CH4_sp3]:    0 atoms
Pseudo Atoms    7 [ CH3_sp3]:    0 atoms
Pseudo Atoms    8 [ CH2_sp3]:    0 atoms
Pseudo Atoms    9 [  CH_sp3]:    0 atoms
Pseudo Atoms   10 [   C_sp3]:    0 atoms
Pseudo Atoms   11 [   C_co2]:    0 atoms
Pseudo Atoms   12 [   O_co2]:    0 atoms
Pseudo Atoms   13 [      Ow]:    0 atoms
Pseudo Atoms   14 [      Hw]:    0 atoms
Pseudo Atoms   15 [      Lw]:    0 atoms


Current (initial full energy) Energy Status
===========================================================================

Internal energy:
Host stretch energy:                                        90493.85893238
Host UreyBradley energy:                                      548.75593054
Host bend energy:                                          124680.15789697
Host inversion-bend energy:                                     0.00000000
Host torsion energy:                                            0.00000000
Host improper torsion energy:                                   0.00000000
Host out-of-plane energy:                                       0.00000000
Host stretch/stretch energy:                                    0.00000000
Host bend/bend energy:                                          0.00000000
Host stretch/bend energy:                                       0.00000000
Host stretch/torsion energy:                                    0.00000000
Host bend/torsion energy:                                  -91297.92173319

Adsorbate stretch energy:                                       0.00000000
Adsorbate UreyBradley energy:                                   0.00000000
Adsorbate bend energy:                                          0.00000000
Adsorbate inversion-bend energy:                                0.00000000
Adsorbate torsion energy:                                       0.00000000
Adsorbate improper torsion energy:                              0.00000000
Adsorbate out-of-plane energy:                                  0.00000000
Adsorbate stretch/stretch energy:                               0.00000000
Adsorbate bend/bend energy:                                     0.00000000
Adsorbate stretch/bend energy:                                  0.00000000
Adsorbate stretch/torsion energy:                               0.00000000
Adsorbate bend/torsion energy:                                  0.00000000
Adsorbate intra VDW energy:                                     0.00000000
Adsorbate intra charge-charge Coulomb energy:                   0.00000000
Adsorbate intra charge-bonddipole Coulomb energy:               0.00000000
Adsorbate intra bonddipole-bonddipole Coulomb energy:           0.00000000

Cation stretch energy:                                          0.00000000
Cation UreyBradley energy:                                      0.00000000
Cation bend energy:                                             0.00000000
Cation inversion-bend energy:                                   0.00000000
Cation torsion energy:                                          0.00000000
Cation improper torsion energy:                                 0.00000000
Cation out-of-plane energy:                                     0.00000000
Cation stretch/stretch energy:                                  0.00000000
Cation bend/bend energy:                                        0.00000000
Cation stretch/bend energy:                                     0.00000000
Cation stretch/torsion energy:                                  0.00000000
Cation bend/torsion energy:                                     0.00000000
Cation intra VDW energy:                                        0.00000000
Cation intra charge-charge Coulomb energy:                      0.00000000
Cation intra charge-bonddipole Coulomb energy:                  0.00000000
Cation intra bonddipole-bonddipole Coulomb energy:              0.00000000

Host/Host energy:                                      -6387759.98641285
	Host/Host VDW energy:                                    -63728.54522574
	Host/Host Coulomb energy:                              -6324031.44118712
	Host/Host charge-charge Real energy:                    -419042.22956759
	Host/Host charge-charge Fourier energy:                -5904989.21161953
	Host/Host charge-bonddipole Real energy:                      0.00000000
	Host/Host charge-bonddipole Fourier energy:                   0.00000000
	Host/Host bondipole-bonddipole Real energy:                   0.00000000
	Host/Host bondipole-bonddipole Fourier energy:                0.00000000

Host/Adsorbate energy:                                        0.00000000
	Host/Adsorbate VDW energy:                                    0.00000000
	Host/Adsorbate Coulomb energy:                                0.00000000
	Host/Adsorbate charge-charge Real energy:                     0.00000000
	Host/Adsorbate charge-charge Fourier energy:                  0.00000000
	Host/Adsorbate charge-bonddipole Real energy:                 0.00000000
	Host/Adsorbate charge-bonddipole Fourier energy:              0.00000000
	Host/Adsorbate bondipole-bonddipole Real energy:              0.00000000
	Host/Adsorbate bondipole-bonddipole Fourier energy:           0.00000000

Host/Cation energy:                                           0.00000000
	Host/Cation VDW energy:                                       0.00000000
	Host/Cation Coulomb energy:                                   0.00000000
	Host/Cation charge-charge Real energy:                        0.00000000
	Host/Cation charge-charge Fourier energy:                     0.00000000
	Host/Cation charge-bonddipole Real energy:                    0.00000000
	Host/Cation charge-bonddipole Fourier energy:                 0.00000000
	Host/Cation bondipole-bonddipole Real energy:                 0.00000000
	Host/Cation bondipole-bonddipole Fourier energy:              0.00000000

Adsorbate/Adsorbate energy:                                        0.00000000
	Adsorbate/Adsorbate VDW energy:                                    0.00000000
	Adsorbate/Adsorbate Coulomb energy:                                0.00000000
	Adsorbate/Adsorbate charge-charge Real energy:                     0.00000000
	Adsorbate/Adsorbate charge-charge Fourier energy:                  0.00000000
	Adsorbate/Adsorbate charge-bonddipole Real energy:                 0.00000000
	Adsorbate/Adsorbate charge-bonddipole Fourier energy:              0.00000000
	Adsorbate/Adsorbate bondipole-bonddipole Real energy:              0.00000000
	Adsorbate/Adsorbate bondipole-bonddipole Fourier energy:           0.00000000

Adsorbate/Cation energy:                                           0.00000000
	Adsorbate/Cation VDW energy:                                       0.00000000
	Adsorbate/Cation Coulomb energy:                                   0.00000000
	Adsorbate/Cation charge-charge Real energy:                        0.00000000
	Adsorbate/Cation charge-charge Fourier energy:                     0.00000000
	Adsorbate/Cation charge-bonddipole Real energy:                    0.00000000
	Adsorbate/Cation charge-bonddipole Fourier energy:                 0.00000000
	Adsorbate/Cation bondipole-bonddipole Real energy:                 0.00000000
	Adsorbate/Cation bondipole-bonddipole Fourier energy:              0.00000000

Cation/Cation energy:                                           0.00000000
	Cation/Cation VDW energy:                                       0.00000000
	Cation/Cation Coulomb energy:                                   0.00000000
	Cation/Cation charge-charge Real energy:                        0.00000000
	Cation/Cation charge-charge Fourier energy:                     0.00000000
	Cation/Cation charge-bonddipole Real energy:                    0.00000000
	Cation/Cation charge-bonddipole Fourier energy:                 0.00000000
	Cation/Cation bondipole-bonddipole Real energy:                 0.00000000
	Cation/Cation bondipole-bonddipole Fourier energy:              0.00000000

Polarization energy:
	Host polarization energy:                                     0.00000000
	Adsorbate polarization energy:                                0.00000000
	Cation polarization energy:                                   0.00000000
	Host back-polarization energy:                                     0.00000000
	Adsorbate back-polarization energy:                                0.00000000
	Cation back-polarization energy:                                   0.00000000

Tail-correction energy:                                       0.00000000

Distance constraints energy:                                  0.00000000
Angle constraints energy:                                     0.00000000
Dihedral constraints energy:                                  0.00000000
Inversion-bend constraints energy:                            0.00000000
Out-of-plane distance constraints energy:                     0.00000000
Exclusion constraints energy:                                 0.00000000

===================================================================
Total energy: -6263335.135386151262
	Total Van der Waals: -63728.545226
	Total Coulomb: -6324031.441187

	Total Polarization: 0.000000







+++++++++++++++++++++++++++++++++++++++++++++++++++++++++++++++++++++++++
Starting simulation
+++++++++++++++++++++++++++++++++++++++++++++++++++++++++++++++++++++++++

Total number of variables used in the minimization: 433
Number of cell-variables used in the minimization: 1
Total number of variables used for generalized coordinates in the minimization: 432
Total number of variables used for positions in the minimization: 432
Total number of variables used for orientation in the minimization: 0

Minimization initial volume:    3395.9682747910 [A^3]
Minimization initial energy: -6263335.1353861410 [K]
Minimization initial strain:       0.0000000000 [-]
Minimization initial box:      15.0310000000       0.0000000000       0.0000000000[-]
                                0.0000000000      15.0310000000       0.0000000000[-]
                                0.0000000000       0.0000000000      15.0310000000[-]

Beginning Baker minimization:
-----------------------------
Computing generalized Hessian matrix
Computing eigenvalues and vectors
Shifting parameter: -589077.6765650709 Lowest eigenvalue:    6231.7960114136
Iteration: 0 Energy: -6263335.1353861410 Volume:    3395.9682747910 RMS gradient: 21585.8  Max gradient: 9.34199e+06 Number of negative eigenvalues: 0 Number of zero eigenvalues: 3
      Box:      15.0310000000       0.0000000000       0.0000000000     Strain derivative: 3124953.0393965538     -64.9725325470  -13461.6531592442
                 0.0000000000      15.0310000000       0.0000000000                            -64.9725325470 3081064.1619052133     333.2206660143
                 0.0000000000       0.0000000000      15.0310000000                         -13461.6531592442     333.2206660143 3135561.3905652380
      Lengths:      15.0310000000      15.0310000000      15.0310000000, Angles:      90.0000000000      90.0000000000      90.0000000000

Computing generalized Hessian matrix
Computing eigenvalues and vectors
Shifting parameter:  -61284.2835977958 Lowest eigenvalue:  -15885.5773494561
Iteration: 1 Energy: -6648920.5002631992 Volume:    2838.7793200296 RMS gradient: 1298.75  Max gradient: 549392 Number of negative eigenvalues: 21 Number of zero eigenvalues: 3
      Box:      14.1593682755       0.0000000000       0.0000000000     Strain derivative:  190159.7795059382    -582.3099989973   -6922.0555816404
                 0.0000000000      14.1593682755       0.0000000000                           -582.3099989973  164609.1002225853    1200.7372394381
                 0.0000000000       0.0000000000      14.1593682755                          -6922.0555816403    1200.7372394381  194147.1439638642
      Lengths:      14.1593682755      14.1593682755      14.1593682755, Angles:      90.0000000000      90.0000000000      90.0000000000

Computing generalized Hessian matrix
Computing eigenvalues and vectors
Shifting parameter:  -34200.1522520463 Lowest eigenvalue:  -16811.4410082592
Iteration: 2 Energy: -6678637.2047490561 Volume:    2864.1951327299 RMS gradient: 820.269  Max gradient: 346286 Number of negative eigenvalues: 24 Number of zero eigenvalues: 3
      Box:      14.2014994329       0.0000000000       0.0000000000     Strain derivative:  118862.1875161566    -537.5346799824   -3880.4358006115
                 0.0000000000      14.2014994329       0.0000000000                           -537.5346799824  104103.6710435169     831.9601351820
                 0.0000000000       0.0000000000      14.2014994329                          -3880.4358006115     831.9601351819  123008.6744706694
      Lengths:      14.2014994329      14.2014994329      14.2014994329, Angles:      90.0000000000      90.0000000000      90.0000000000

Computing generalized Hessian matrix
Computing eigenvalues and vectors
Shifting parameter:  -16824.7341704123 Lowest eigenvalue:  -16819.7794193269
Iteration: 3 Energy: -6697054.5408984125 Volume:    2890.4256821341 RMS gradient: 487.058  Max gradient: 206401 Number of negative eigenvalues: 24 Number of zero eigenvalues: 3
      Box:      14.2447206168       0.0000000000       0.0000000000     Strain derivative:   69555.5361676422    -338.9601174524   -1789.0630754768
                 0.0000000000      14.2447206168       0.0000000000                           -338.9601174524   62690.4147724050     429.6216372837
                 0.0000000000       0.0000000000      14.2447206168                          -1789.0630754768     429.6216372838   74109.7812968604
      Lengths:      14.2447206168      14.2447206168      14.2447206168, Angles:      90.0000000000      90.0000000000      90.0000000000

Computing generalized Hessian matrix
Computing eigenvalues and vectors
Shifting parameter:  -19228.9683115420 Lowest eigenvalue:  -15941.3560594199
Iteration: 4 Energy: -6698066.3277084604 Volume:    2890.5566668216 RMS gradient: 518.023  Max gradient: 220060 Number of negative eigenvalues: 24 Number of zero eigenvalues: 3
      Box:      14.2449357884       0.0000000000       0.0000000000     Strain derivative:   74322.0889249776    -255.9808194584   -1793.1230882656
                 0.0000000000      14.2449357884       0.0000000000                           -255.9808194584   66873.5743554305     397.7384141180
                 0.0000000000       0.0000000000      14.2449357884                          -1793.1230882656     397.7384141180   78588.2119982495
      Lengths:      14.2449357884      14.2449357884      14.2449357884, Angles:      90.0000000000      90.0000000000      90.0000000000

Computing generalized Hessian matrix
Computing eigenvalues and vectors
Shifting parameter:  -20431.3287768435 Lowest eigenvalue:  -14028.6206851613
Iteration: 5 Energy: -6702949.1078319158 Volume:    2893.1318670947 RMS gradient: 464.113  Max gradient: 197467 Number of negative eigenvalues: 24 Number of zero eigenvalues: 3
      Box:      14.2491648093       0.0000000000       0.0000000000     Strain derivative:   66513.2003966974    -119.0041250596   -1534.4050671886
                 0.0000000000      14.2491648093       0.0000000000                           -119.0041250596   60041.5816544959     272.7101191151
                 0.0000000000       0.0000000000      14.2491648093                          -1534.4050671886     272.7101191151   70617.1374435754
      Lengths:      14.2491648093      14.2491648093      14.2491648093, Angles:      90.0000000000      90.0000000000      90.0000000000

Computing generalized Hessian matrix
Computing eigenvalues and vectors
Shifting parameter:  -20848.3474213160 Lowest eigenvalue:  -11435.1660999378
Iteration: 6 Energy: -6708449.5518812109 Volume:    2893.4642545934 RMS gradient: 404.773  Max gradient: 172256 Number of negative eigenvalues: 25 Number of zero eigenvalues: 3
      Box:      14.2497104767       0.0000000000       0.0000000000     Strain derivative:   57882.9421730387      22.5490315474   -1338.5271191276
                 0.0000000000      14.2497104767       0.0000000000                             22.5490315474   52512.9530479052     135.5761084922
                 0.0000000000       0.0000000000      14.2497104767                          -1338.5271191276     135.5761084922   61582.6142147621
      Lengths:      14.2497104767      14.2497104767      14.2497104767, Angles:      90.0000000000      90.0000000000      90.0000000000

Computing generalized Hessian matrix
Computing eigenvalues and vectors
Shifting parameter:  -20440.0169792819 Lowest eigenvalue:   -8442.6459933307
Iteration: 7 Energy: -6714444.9898315901 Volume:    2891.8512285070 RMS gradient: 342.238  Max gradient: 145444 Number of negative eigenvalues: 21 Number of zero eigenvalues: 3
      Box:      14.2470620450       0.0000000000       0.0000000000     Strain derivative:   48754.2305589592     164.6665142266   -1180.6210005093
                 0.0000000000      14.2470620450       0.0000000000                            164.6665142266   44501.3985778584      -9.2465577233
                 0.0000000000       0.0000000000      14.2470620450                          -1180.6210005093      -9.2465577233   51968.8537345439
      Lengths:      14.2470620450      14.2470620450      14.2470620450, Angles:      90.0000000000      90.0000000000      90.0000000000

Computing generalized Hessian matrix
Computing eigenvalues and vectors
Shifting parameter:  -19081.2271395113 Lowest eigenvalue:   -5146.6270916773
Iteration: 8 Energy: -6720722.1817838252 Volume:    2888.6408212092 RMS gradient: 279.598  Max gradient: 118418 Number of negative eigenvalues: 15 Number of zero eigenvalues: 3
      Box:      14.2417879369       0.0000000000       0.0000000000     Strain derivative:   39579.1487858741     286.8111595428   -1034.7511450552
                 0.0000000000      14.2417879369       0.0000000000                            286.8111595428   36374.0137195507    -138.0183358659
                 0.0000000000       0.0000000000      14.2417879369                          -1034.7511450551    -138.0183358659   42321.1840474556
      Lengths:      14.2417879369      14.2417879369      14.2417879369, Angles:      90.0000000000      90.0000000000      90.0000000000

Computing generalized Hessian matrix
Computing eigenvalues and vectors
Shifting parameter:  -16632.4309393231 Lowest eigenvalue:   -2919.1236711365
Iteration: 9 Energy: -6726988.7072935496 Volume:    2884.3711823750 RMS gradient: 220.069  Max gradient: 92651.4 Number of negative eigenvalues: 13 Number of zero eigenvalues: 3
      Box:      14.2347676485       0.0000000000       0.0000000000     Strain derivative:   30845.7192974388     363.2668361535    -877.9124600674
                 0.0000000000      14.2347676485       0.0000000000                            363.2668361535   28557.4583180761    -226.4785194551
                 0.0000000000       0.0000000000      14.2347676485                           -877.9124600674    -226.4785194551   33172.0152840677
      Lengths:      14.2347676485      14.2347676485      14.2347676485, Angles:      90.0000000000      90.0000000000      90.0000000000

Computing generalized Hessian matrix
Computing eigenvalues and vectors
Shifting parameter:  -13336.9467619721 Lowest eigenvalue:   -2221.8448868474
Iteration: 10 Energy: -6732850.7011070279 Volume:    2879.9398356035 RMS gradient: 167.512  Max gradient: 69964.3 Number of negative eigenvalues: 8 Number of zero eigenvalues: 3
      Box:      14.2274741440       0.0000000000       0.0000000000     Strain derivative:   23164.1647337504     382.6145697008    -705.9166817343
                 0.0000000000      14.2274741440       0.0000000000                            382.6145697008   21606.8947285885    -253.3723215213
                 0.0000000000       0.0000000000      14.2274741440                           -705.9166817343    -253.3723215213   25154.7330146794
      Lengths:      14.2274741440      14.2274741440      14.2274741440, Angles:      90.0000000000      90.0000000000      90.0000000000

Computing generalized Hessian matrix
Computing eigenvalues and vectors
Shifting parameter:   -9985.3474569855 Lowest eigenvalue:   -1150.2909165243
Iteration: 11 Energy: -6737854.6180195529 Volume:    2876.8498527030 RMS gradient: 129.256  Max gradient: 53729.9 Number of negative eigenvalues: 8 Number of zero eigenvalues: 3
      Box:      14.2223839469       0.0000000000       0.0000000000     Strain derivative:   17667.3122209231     350.4148788735    -537.7336414022
                 0.0000000000      14.2223839469       0.0000000000                            350.4148788735   16606.3260468767    -238.6433900797
                 0.0000000000       0.0000000000      14.2223839469                           -537.7336414022    -238.6433900797   19429.6495792627
      Lengths:      14.2223839469      14.2223839469      14.2223839469, Angles:      90.0000000000      90.0000000000      90.0000000000

Computing generalized Hessian matrix
Computing eigenvalues and vectors
Shifting parameter:   -6410.3134625633 Lowest eigenvalue:   -1461.4454578427
Iteration: 12 Energy: -6741774.0371542210 Volume:    2875.9035348332 RMS gradient: 108.888  Max gradient: 45551.1 Number of negative eigenvalues: 6 Number of zero eigenvalues: 3
      Box:      14.2208243275       0.0000000000       0.0000000000     Strain derivative:   14854.1312695709     295.6373363207    -415.0772372314
                 0.0000000000      14.2208243275       0.0000000000                            295.6373363207   14075.0556702284    -225.2318429163
                 0.0000000000       0.0000000000      14.2208243275                           -415.0772372314    -225.2318429163   16605.2682013134
      Lengths:      14.2208243275      14.2208243275      14.2208243275, Angles:      90.0000000000      90.0000000000      90.0000000000

Computing generalized Hessian matrix
Computing eigenvalues and vectors
Shifting parameter:   -2441.2657099007 Lowest eigenvalue:   -1791.4808921910
Iteration: 13 Energy: -6744658.5339679709 Volume:    2875.2997903393 RMS gradient: 86.3662  Max gradient: 36507 Number of negative eigenvalues: 6 Number of zero eigenvalues: 3
      Box:      14.2198291220       0.0000000000       0.0000000000     Strain derivative:   11768.2272877676     252.0076126695    -337.9002468410
                 0.0000000000      14.2198291220       0.0000000000                            252.0076126696   11113.2277495155    -242.1649837059
                 0.0000000000       0.0000000000      14.2198291220                           -337.9002468409    -242.1649837059   13619.8482405465
      Lengths:      14.2198291220      14.2198291220      14.2198291220, Angles:      90.0000000000      90.0000000000      90.0000000000

Computing generalized Hessian matrix
Computing eigenvalues and vectors
Shifting parameter:   -2286.1248811287 Lowest eigenvalue:   -2285.6781189405
Iteration: 14 Energy: -6746079.2524778377 Volume:    2873.5319940677 RMS gradient: 37.2608  Max gradient: 15765.7 Number of negative eigenvalues: 6 Number of zero eigenvalues: 3
      Box:      14.2169143054       0.0000000000       0.0000000000     Strain derivative:    4837.8878292753     544.0121982820    -686.8932603894
                 0.0000000000      14.2169143054       0.0000000000                            544.0121982821    4400.4792097739    -863.1171755105
                 0.0000000000       0.0000000000      14.2169143054                           -686.8932603894    -863.1171755105    6528.1978110623
      Lengths:      14.2169143054      14.2169143054      14.2169143054, Angles:      90.0000000000      90.0000000000      90.0000000000

Computing generalized Hessian matrix
Computing eigenvalues and vectors
Shifting parameter:   -2281.3296068065 Lowest eigenvalue:   -2280.5135873981
Iteration: 15 Energy: -6746193.7441927008 Volume:    2873.4442209160 RMS gradient: 61.2016  Max gradient: 26140 Number of negative eigenvalues: 6 Number of zero eigenvalues: 3
      Box:      14.2167695502       0.0000000000       0.0000000000     Strain derivative:    8512.1044430456   11875.1252010833   -1017.6491077281
                 0.0000000000      14.2167695502       0.0000000000                          11875.1252010832    8070.0729773453   -1216.9807687961
                 0.0000000000       0.0000000000      14.2167695502                          -1017.6491077280   -1216.9807687961    9664.7425777064
      Lengths:      14.2167695502      14.2167695502      14.2167695502, Angles:      90.0000000000      90.0000000000      90.0000000000

Computing generalized Hessian matrix
Computing eigenvalues and vectors
Shifting parameter:   -2342.3133243955 Lowest eigenvalue:   -2264.3414464534
Iteration: 16 Energy: -6746326.9992460506 Volume:    2873.2198311621 RMS gradient: 84.0124  Max gradient: 36016.4 Number of negative eigenvalues: 6 Number of zero eigenvalues: 3
      Box:      14.2163994740       0.0000000000       0.0000000000     Strain derivative:   11879.1707484461   12497.0451025680  -12219.5890818012
                 0.0000000000      14.2163994740       0.0000000000                          12497.0451025679   11039.6973847393    1054.4734972066
                 0.0000000000       0.0000000000      14.2163994740                         -12219.5890818012    1054.4734972066   13301.2211696239
      Lengths:      14.2163994740      14.2163994740      14.2163994740, Angles:      90.0000000000      90.0000000000      90.0000000000

Computing generalized Hessian matrix
Computing eigenvalues and vectors
Shifting parameter:   -2335.8843718993 Lowest eigenvalue:   -2168.7511502434
Iteration: 17 Energy: -6746621.8067935696 Volume:    2870.6156287223 RMS gradient: 96.2836  Max gradient: 39602.7 Number of negative eigenvalues: 6 Number of zero eigenvalues: 3
      Box:      14.2121030661       0.0000000000       0.0000000000     Strain derivative:   12928.9720069428   20302.2764514016  -19628.9575502957
                 0.0000000000      14.2121030661       0.0000000000                          20302.2764514015   11379.1546073970    6685.9783141751
                 0.0000000000       0.0000000000      14.2121030661                         -19628.9575502957    6685.9783141751   13707.5144158187
      Lengths:      14.2121030661      14.2121030661      14.2121030661, Angles:      90.0000000000      90.0000000000      90.0000000000

Computing generalized Hessian matrix
Computing eigenvalues and vectors
Shifting parameter:   -2175.4595881823 Lowest eigenvalue:   -1836.8502817945
Iteration: 18 Energy: -6746906.4209282324 Volume:    2868.4058508934 RMS gradient: 100.804  Max gradient: 40633.1 Number of negative eigenvalues: 6 Number of zero eigenvalues: 3
      Box:      14.2084553407       0.0000000000       0.0000000000     Strain derivative:    9174.0210143170   20978.2254237625  -20218.0646742381
                 0.0000000000      14.2084553407       0.0000000000                          20978.2254237625   14358.4022996510   19044.7082528698
                 0.0000000000       0.0000000000      14.2084553407                         -20218.0646742381   19044.7082528698   17362.1002815869
      Lengths:      14.2084553407      14.2084553407      14.2084553407, Angles:      90.0000000000      90.0000000000      90.0000000000

Computing generalized Hessian matrix
Computing eigenvalues and vectors
Shifting parameter:   -3849.9692930805 Lowest eigenvalue:   -3314.9241332031
Iteration: 19 Energy: -6747551.1063644504 Volume:    2863.8180982037 RMS gradient: 88.8666  Max gradient: 36382.3 Number of negative eigenvalues: 6 Number of zero eigenvalues: 3
      Box:      14.2008762572       0.0000000000       0.0000000000     Strain derivative:    2416.9239680256   23518.3087627005  -22235.8465339350
                 0.0000000000      14.2008762572       0.0000000000                          23518.3087627004   12862.4606136760   20305.6911925528
                 0.0000000000       0.0000000000      14.2008762572                         -22235.8465339350   20305.6911925528   21516.4341364631
      Lengths:      14.2008762572      14.2008762572      14.2008762572, Angles:      90.0000000000      90.0000000000      90.0000000000

Computing generalized Hessian matrix
Computing eigenvalues and vectors
Shifting parameter:   -4345.4983902791 Lowest eigenvalue:   -3660.7104276007
Iteration: 20 Energy: -6748240.3035688838 Volume:    2859.5476754087 RMS gradient: 94.7375  Max gradient: 38969.6 Number of negative eigenvalues: 5 Number of zero eigenvalues: 3
      Box:      14.1938141334       0.0000000000       0.0000000000     Strain derivative:   -5042.4497317176   25569.2173105272  -23632.2518613130
                 0.0000000000      14.1938141334       0.0000000000                          25569.2173105272   10443.1366812851   21124.8713072294
                 0.0000000000       0.0000000000      14.1938141334                         -23632.2518613130   21124.8713072294   34302.2718436728
      Lengths:      14.1938141334      14.1938141334      14.1938141334, Angles:      90.0000000000      90.0000000000      90.0000000000

Computing generalized Hessian matrix
Computing eigenvalues and vectors
Shifting parameter:   -4447.8650827529 Lowest eigenvalue:   -3743.5231377130
Iteration: 21 Energy: -6749064.6436142558 Volume:    2854.5578215731 RMS gradient: 96.8237  Max gradient: 39548.2 Number of negative eigenvalues: 4 Number of zero eigenvalues: 3
      Box:      14.1855533521       0.0000000000       0.0000000000     Strain derivative:  -12366.2960002258   26967.2049320247  -25658.3507312215
                 0.0000000000      14.1855533521       0.0000000000                          26967.2049320246   22149.9128574810   22214.4622777963
                 0.0000000000       0.0000000000      14.1855533521                         -25658.3507312214   22214.4622777963   30728.6624514541
      Lengths:      14.1855533521      14.1855533521      14.1855533521, Angles:      90.0000000000      90.0000000000      90.0000000000

Computing generalized Hessian matrix
Computing eigenvalues and vectors
Shifting parameter:   -5040.6929167070 Lowest eigenvalue:   -4109.9968749452
Iteration: 22 Energy: -6749945.5768911000 Volume:    2848.6350838336 RMS gradient: 92.3841  Max gradient: 36724.4 Number of negative eigenvalues: 4 Number of zero eigenvalues: 3
      Box:      14.1757356626       0.0000000000       0.0000000000     Strain derivative:  -18075.0080109604   29895.1430343613  -27367.3669164371
                 0.0000000000      14.1757356626       0.0000000000                          29895.1430343613   15843.6969309362   24168.0126850915
                 0.0000000000       0.0000000000      14.1757356626                         -27367.3669164371   24168.0126850915   40756.3034574628
      Lengths:      14.1757356626      14.1757356626      14.1757356626, Angles:      90.0000000000      90.0000000000      90.0000000000

Computing generalized Hessian matrix
Computing eigenvalues and vectors
Shifting parameter:   -4944.7923452162 Lowest eigenvalue:   -3869.3878093794
Iteration: 23 Energy: -6750766.5148489457 Volume:    2842.7097484603 RMS gradient: 92.5473  Max gradient: 34479.8 Number of negative eigenvalues: 2 Number of zero eigenvalues: 3
      Box:      14.1659000405       0.0000000000       0.0000000000     Strain derivative:  -12040.8992249946   30997.4159870472  -30347.9589067987
                 0.0000000000      14.1659000405       0.0000000000                          30997.4159870473   17788.9162744524   26263.5525869094
                 0.0000000000       0.0000000000      14.1659000405                         -30347.9589067987   26263.5525869094   31232.9099799361
      Lengths:      14.1659000405      14.1659000405      14.1659000405, Angles:      90.0000000000      90.0000000000      90.0000000000

Computing generalized Hessian matrix
Computing eigenvalues and vectors
Shifting parameter:   -3310.2210871798 Lowest eigenvalue:   -3056.3552681826
Iteration: 24 Energy: -6751125.4531918848 Volume:    2836.8969704125 RMS gradient: 102.617  Max gradient: 30387.3 Number of negative eigenvalues: 1 Number of zero eigenvalues: 3
      Box:      14.1562379658       0.0000000000       0.0000000000     Strain derivative:  -19026.3970292722   32996.3866730736  -33367.5327474951
                 0.0000000000      14.1562379658       0.0000000000                          32996.3866730736   29603.9261680301   28139.3073566775
                 0.0000000000       0.0000000000      14.1562379658                         -33367.5327474951   28139.3073566775   24233.0245695119
      Lengths:      14.1562379658      14.1562379658      14.1562379658, Angles:      90.0000000000      90.0000000000      90.0000000000

Computing generalized Hessian matrix
Computing eigenvalues and vectors
Shifting parameter:   -3856.4669714064 Lowest eigenvalue:   -2568.7583073654
Iteration: 25 Energy: -6751705.3238172289 Volume:    2834.4652901314 RMS gradient: 107.831  Max gradient: 36483.9 Number of negative eigenvalues: 1 Number of zero eigenvalues: 3
      Box:      14.1521920799       0.0000000000       0.0000000000     Strain derivative:   -1868.4021819549   33381.2183009267  -33693.4775246964
                 0.0000000000      14.1521920799       0.0000000000                          33381.2183009267   23488.0880474593   30475.0438043102
                 0.0000000000       0.0000000000      14.1521920799                         -33693.4775246964   30475.0438043101   18578.2008721033
      Lengths:      14.1521920799      14.1521920799      14.1521920799, Angles:      90.0000000000      90.0000000000      90.0000000000

Computing generalized Hessian matrix
Computing eigenvalues and vectors
Shifting parameter:   -3439.8691564670 Lowest eigenvalue:    2342.6591906008
Iteration: 26 Energy: -6751211.0507485149 Volume:    2829.9792477824 RMS gradient: 131.764  Max gradient: 37465.9 Number of negative eigenvalues: 0 Number of zero eigenvalues: 3
      Box:      14.1447220224       0.0000000000       0.0000000000     Strain derivative:   17290.7606866290   33974.1712637960  -34215.6861012960
                 0.0000000000      14.1447220224       0.0000000000                          33974.1712637959   12074.0391519724   33918.3846878588
                 0.0000000000       0.0000000000      14.1447220224                         -34215.6861012960   33918.3846878588    7846.9733489467
      Lengths:      14.1447220224      14.1447220224      14.1447220224, Angles:      90.0000000000      90.0000000000      90.0000000000

Computing generalized Hessian matrix
Computing eigenvalues and vectors
Shifting parameter:   -1502.2782164028 Lowest eigenvalue:    2309.6106499432
Iteration: 27 Energy: -6752830.7415092951 Volume:    2827.3575018996 RMS gradient: 22.2577  Max gradient: 5264.01 Number of negative eigenvalues: 0 Number of zero eigenvalues: 3
      Box:      14.1403526942       0.0000000000       0.0000000000     Strain derivative:   -1440.8525735169   32989.8876783398  -33000.6563185704
                 0.0000000000      14.1403526942       0.0000000000                          32989.8876783398     258.8650589467   32466.1198872708
                 0.0000000000       0.0000000000      14.1403526942                         -33000.6563185704   32466.1198872708    -380.2634505905
      Lengths:      14.1403526942      14.1403526942      14.1403526942, Angles:      90.0000000000      90.0000000000      90.0000000000

Computing generalized Hessian matrix
Computing eigenvalues and vectors
Shifting parameter: -357748.1831216527 Lowest eigenvalue: -357692.9064018234
Iteration: 28 Energy: -6749697.2130904561 Volume:    2822.5585476572 RMS gradient: 62.3354  Max gradient: 15485.3 Number of negative eigenvalues: 2 Number of zero eigenvalues: 3
      Box:      14.1323478894       0.0000000000       0.0000000000     Strain derivative:   15173.9959136354   33529.6894550440  -33536.5185614310
                 0.0000000000      14.1323478894       0.0000000000                          33529.6894550441   -6834.6058676795   34114.8967686564
                 0.0000000000       0.0000000000      14.1323478894                         -33536.5185614309   34114.8967686563   -7173.6181156143
      Lengths:      14.1323478894      14.1323478894      14.1323478894, Angles:      90.0000000000      90.0000000000      90.0000000000

Computing generalized Hessian matrix
Computing eigenvalues and vectors
Shifting parameter: -436484.9120121077 Lowest eigenvalue: -436482.3029145760
Iteration: 29 Energy: -6746304.2838634951 Volume:    2822.4418228676 RMS gradient: 132.911  Max gradient: 21263.7 Number of negative eigenvalues: 1 Number of zero eigenvalues: 3
      Box:      14.1321530758       0.0000000000       0.0000000000     Strain derivative:   33266.0054020193   33587.3829548915  -33384.3191201942
                 0.0000000000      14.1321530758       0.0000000000                          33587.3829548915   -3895.5222992279   37604.9452673229
                 0.0000000000       0.0000000000      14.1321530758                         -33384.3191201942   37604.9452673229  -10182.1629975947
      Lengths:      14.1321530758      14.1321530758      14.1321530758, Angles:      90.0000000000      90.0000000000      90.0000000000

Computing generalized Hessian matrix
Computing eigenvalues and vectors
Shifting parameter:  -13831.8369309932 Lowest eigenvalue:    2267.7463518940
Iteration: 30 Energy: -6744432.8820785442 Volume:    2822.8900165284 RMS gradient: 218.195  Max gradient: 48056.4 Number of negative eigenvalues: 0 Number of zero eigenvalues: 3
      Box:      14.1329010814       0.0000000000       0.0000000000     Strain derivative:   58487.9142512169   33683.9708310330  -34007.9389115913
                 0.0000000000      14.1329010814       0.0000000000                          33683.9708310330   20478.5924560589   41415.4063548862
                 0.0000000000       0.0000000000      14.1329010814                         -34007.9389115913   41415.4063548862  -30889.2833232172
      Lengths:      14.1329010814      14.1329010814      14.1329010814, Angles:      90.0000000000      90.0000000000      90.0000000000

Computing generalized Hessian matrix
Computing eigenvalues and vectors
Shifting parameter:    -856.1502011005 Lowest eigenvalue:    2295.7243432995
Iteration: 31 Energy: -6753152.5749578997 Volume:    2825.4400232049 RMS gradient: 70.2616  Max gradient: 25609.8 Number of negative eigenvalues: 0 Number of zero eigenvalues: 3
      Box:      14.1371553675       0.0000000000       0.0000000000     Strain derivative:   17418.1899762449   33436.7592225583  -33360.4261992040
                 0.0000000000      14.1371553675       0.0000000000                          33436.7592225582    6505.5713099880   35378.3048116022
                 0.0000000000       0.0000000000      14.1371553675                         -33360.4261992040   35378.3048116022    2200.1514733821
      Lengths:      14.1371553675      14.1371553675      14.1371553675, Angles:      90.0000000000      90.0000000000      90.0000000000

Computing generalized Hessian matrix
Computing eigenvalues and vectors
Shifting parameter:     -63.4947095313 Lowest eigenvalue:    2265.0757610162
Iteration: 32 Energy: -6753598.3384337639 Volume:    2822.9413947600 RMS gradient: 14.05  Max gradient: 3056.32 Number of negative eigenvalues: 0 Number of zero eigenvalues: 3
      Box:      14.1329868232       0.0000000000       0.0000000000     Strain derivative:     745.4825123002   33109.1325059725  -33175.7522239326
                 0.0000000000      14.1329868232       0.0000000000                          33109.1325059725    1703.6336635444   32709.9628357149
                 0.0000000000       0.0000000000      14.1329868232                         -33175.7522239326   32709.9628357149   -3794.7752631574
      Lengths:      14.1329868232      14.1329868232      14.1329868232, Angles:      90.0000000000      90.0000000000      90.0000000000

Computing generalized Hessian matrix
Computing eigenvalues and vectors
Shifting parameter:      -9.3195668999 Lowest eigenvalue:    2262.0406444326
Iteration: 33 Energy: -6753630.3367941845 Volume:    2822.9722608925 RMS gradient: 6.48873  Max gradient: 2220.29 Number of negative eigenvalues: 0 Number of zero eigenvalues: 3
      Box:      14.1330383332       0.0000000000       0.0000000000     Strain derivative:    -319.2039468392   33000.9861322130  -33067.2951024376
                 0.0000000000      14.1330383332       0.0000000000                          33000.9861322130    2901.8793461340   32702.3314509345
                 0.0000000000       0.0000000000      14.1330383332                         -33067.2951024376   32702.3314509345   -2430.6043952150
      Lengths:      14.1330383332      14.1330383332      14.1330383332, Angles:      90.0000000000      90.0000000000      90.0000000000

Computing generalized Hessian matrix
Computing eigenvalues and vectors
Shifting parameter:      -0.0115864064 Lowest eigenvalue:    2260.0152438687
Iteration: 34 Energy: -6753635.8362397570 Volume:    2822.9495467901 RMS gradient: 0.239034  Max gradient: 76.0136 Number of negative eigenvalues: 0 Number of zero eigenvalues: 3
      Box:      14.1330004275       0.0000000000       0.0000000000     Strain derivative:   -1020.0816019724   32983.0231592177  -33058.1474647280
                 0.0000000000      14.1330004275       0.0000000000                          32983.0231592177    3093.4765696414   32733.3315735356
                 0.0000000000       0.0000000000      14.1330004275                         -33058.1474647279   32733.3315735356   -2010.0520411564
      Lengths:      14.1330004275      14.1330004275      14.1330004275, Angles:      90.0000000000      90.0000000000      90.0000000000

Computing generalized Hessian matrix
Computing eigenvalues and vectors
Shifting parameter:      -0.0000401156 Lowest eigenvalue:    2259.9756828821
Iteration: 35 Energy: -6753635.8431515926 Volume:    2822.9513953523 RMS gradient: 0.0137767  Max gradient: 4.46518 Number of negative eigenvalues: 0 Number of zero eigenvalues: 3
      Box:      14.1330035124       0.0000000000       0.0000000000     Strain derivative:   -1031.8376155465   32982.0776640459  -33057.4699099874
                 0.0000000000      14.1330035124       0.0000000000                          32982.0776640458    3116.2564844180   32733.7192061556
                 0.0000000000       0.0000000000      14.1330035124                         -33057.4699099874   32733.7192061556   -1975.7836276116
      Lengths:      14.1330035124      14.1330035124      14.1330035124, Angles:      90.0000000000      90.0000000000      90.0000000000

Computing generalized Hessian matrix
Computing eigenvalues and vectors
Shifting parameter:      -0.0000001442 Lowest eigenvalue:    2259.9685622101
Iteration: 36 Energy: -6753635.8431774639 Volume:    2822.9512761151 RMS gradient: 0.000857296  Max gradient: 0.267584 Number of negative eigenvalues: 0 Number of zero eigenvalues: 3
      Box:      14.1330033134       0.0000000000       0.0000000000     Strain derivative:   -1033.6876941199   32982.0232069370  -33057.4311372865
                 0.0000000000      14.1330033134       0.0000000000                          32982.0232069370    3116.3440551976   32733.7379545367
                 0.0000000000       0.0000000000      14.1330033134                         -33057.4311372865   32733.7379545367   -1975.0103828353
      Lengths:      14.1330033134      14.1330033134      14.1330033134, Angles:      90.0000000000      90.0000000000      90.0000000000

Computing generalized Hessian matrix
Computing eigenvalues and vectors
Shifting parameter:      -0.0000000005 Lowest eigenvalue:    2259.9684944894
Iteration: 37 Energy: -6753635.8431774341 Volume:    2822.9512838490 RMS gradient: 4.98439e-05  Max gradient: 0.0159188 Number of negative eigenvalues: 0 Number of zero eigenvalues: 3
      Box:      14.1330033263       0.0000000000       0.0000000000     Strain derivative:   -1033.7231549203   32982.0198343050  -33057.4286970957
                 0.0000000000      14.1330033263       0.0000000000                          32982.0198343049    3116.4310833857   32733.7392553006
                 0.0000000000       0.0000000000      14.1330033263                         -33057.4286970957   32733.7392553006   -1974.8824176297
      Lengths:      14.1330033263      14.1330033263      14.1330033263, Angles:      90.0000000000      90.0000000000      90.0000000000

Computing generalized Hessian matrix
Computing eigenvalues and vectors
Shifting parameter:      -0.0000000000 Lowest eigenvalue:    2259.9685429743
Iteration: 38 Energy: -6753635.8431774415 Volume:    2822.9512833475 RMS gradient: 3.12585e-06  Max gradient: 0.000955361 Number of negative eigenvalues: 0 Number of zero eigenvalues: 3
      Box:      14.1330033255       0.0000000000       0.0000000000     Strain derivative:   -1033.7301388969   32982.0196405829  -33057.4285592885
                 0.0000000000      14.1330033255       0.0000000000                          32982.0196405829    3116.4309761188   32733.7393209304
                 0.0000000000       0.0000000000      14.1330033255                         -33057.4285592885   32733.7393209304   -1974.8800777261
      Lengths:      14.1330033255      14.1330033255      14.1330033255, Angles:      90.0000000000      90.0000000000      90.0000000000

Computing generalized Hessian matrix
Computing eigenvalues and vectors
Shifting parameter:      -0.0000000000 Lowest eigenvalue:    2259.9686986081
Iteration: 39 Energy: -6753635.8431774508 Volume:    2822.9512833800 RMS gradient: 1.81307e-07  Max gradient: 5.67957e-05 Number of negative eigenvalues: 0 Number of zero eigenvalues: 3
      Box:      14.1330033255       0.0000000000       0.0000000000     Strain derivative:   -1033.7302407637   32982.0196285042  -33057.4285505387
                 0.0000000000      14.1330033255       0.0000000000                          32982.0196285042    3116.4313137296   32733.7393256331
                 0.0000000000       0.0000000000      14.1330033255                         -33057.4285505387   32733.7393256330   -1974.8795940085
      Lengths:      14.1330033255      14.1330033255      14.1330033255, Angles:      90.0000000000      90.0000000000      90.0000000000

Computing generalized Hessian matrix
Computing eigenvalues and vectors
Shifting parameter:      -0.0000000000 Lowest eigenvalue:    2259.9685279070
Iteration: 40 Energy: -6753635.8431774462 Volume:    2822.9512833779 RMS gradient: 1.1411e-08  Max gradient: 3.41258e-06 Number of negative eigenvalues: 0 Number of zero eigenvalues: 3
      Box:      14.1330033255       0.0000000000       0.0000000000     Strain derivative:   -1033.7302672118   32982.0196278159  -33057.4285500513
                 0.0000000000      14.1330033255       0.0000000000                          32982.0196278159    3116.4313116194   32733.7393258634
                 0.0000000000       0.0000000000      14.1330033255                         -33057.4285500513   32733.7393258635   -1974.8795873381
[...]
	Block[ 2]            0.00000 [K]
	Block[ 3]            0.00000 [K]
	Block[ 4]            0.00000 [K]
	------------------------------------------------------------------------------
	Average              0.00000 [K] +/-            0.00000 [K]

Average Adsorbate Bend-Bend cross term energy:
==============================================
	Block[ 0]            0.00000 [K]
	Block[ 1]            0.00000 [K]
	Block[ 2]            0.00000 [K]
	Block[ 3]            0.00000 [K]
	Block[ 4]            0.00000 [K]
	------------------------------------------------------------------------------
	Average              0.00000 [K] +/-            0.00000 [K]

Average Adsorbate Bond-Bend cross term energy:
=================================================
	Block[ 0]            0.00000 [K]
	Block[ 1]            0.00000 [K]
	Block[ 2]            0.00000 [K]
	Block[ 3]            0.00000 [K]
	Block[ 4]            0.00000 [K]
	------------------------------------------------------------------------------
	Average              0.00000 [K] +/-            0.00000 [K]

Average Adsorbate Bond-Torsion cross term energy:
=================================================
	Block[ 0]            0.00000 [K]
	Block[ 1]            0.00000 [K]
	Block[ 2]            0.00000 [K]
	Block[ 3]            0.00000 [K]
	Block[ 4]            0.00000 [K]
	------------------------------------------------------------------------------
	Average              0.00000 [K] +/-            0.00000 [K]

Average Adsorbate Bend-Torsion cross term energy:
=================================================
	Block[ 0]            0.00000 [K]
	Block[ 1]            0.00000 [K]
	Block[ 2]            0.00000 [K]
	Block[ 3]            0.00000 [K]
	Block[ 4]            0.00000 [K]
	------------------------------------------------------------------------------
	Average              0.00000 [K] +/-            0.00000 [K]

Average Adsorbate Intra Van der Waals energy:
=============================================
	Block[ 0]            0.00000 [K]
	Block[ 1]            0.00000 [K]
	Block[ 2]            0.00000 [K]
	Block[ 3]            0.00000 [K]
	Block[ 4]            0.00000 [K]
	------------------------------------------------------------------------------
	Average              0.00000 [K] +/-            0.00000 [K]

Average Adsorbate Intra charge-charge Coulomb energy:
=======================================
	Block[ 0]            0.00000 [K]
	Block[ 1]            0.00000 [K]
	Block[ 2]            0.00000 [K]
	Block[ 3]            0.00000 [K]
	Block[ 4]            0.00000 [K]
	------------------------------------------------------------------------------
	Average              0.00000 [K] +/-            0.00000 [K]

Average Adsorbate Intra charge-bonddipole Coulomb energy:
=======================================
	Block[ 0]            0.00000 [K]
	Block[ 1]            0.00000 [K]
	Block[ 2]            0.00000 [K]
	Block[ 3]            0.00000 [K]
	Block[ 4]            0.00000 [K]
	------------------------------------------------------------------------------
	Average              0.00000 [K] +/-            0.00000 [K]

Average Adsorbate Intra bonddipole-bonddipole Coulomb energy:
=======================================
	Block[ 0]            0.00000 [K]
	Block[ 1]            0.00000 [K]
	Block[ 2]            0.00000 [K]
	Block[ 3]            0.00000 [K]
	Block[ 4]            0.00000 [K]
	------------------------------------------------------------------------------
	Average              0.00000 [K] +/-            0.00000 [K]

Average Cation Bond stretch energy:
=================================
	Block[ 0]            0.00000 [K]
	Block[ 1]            0.00000 [K]
	Block[ 2]            0.00000 [K]
	Block[ 3]            0.00000 [K]
	Block[ 4]            0.00000 [K]
	------------------------------------------------------------------------------
	Average              0.00000 [K] +/-            0.00000 [K]

Average Cation UreyBradley stretch energy:
==========================================
	Block[ 0]            0.00000 [K]
	Block[ 1]            0.00000 [K]
	Block[ 2]            0.00000 [K]
	Block[ 3]            0.00000 [K]
	Block[ 4]            0.00000 [K]
	------------------------------------------------------------------------------
	Average              0.00000 [K] +/-            0.00000 [K]

Average Cation Bend angle energy:
=================================
	Block[ 0]            0.00000 [K]
	Block[ 1]            0.00000 [K]
	Block[ 2]            0.00000 [K]
	Block[ 3]            0.00000 [K]
	Block[ 4]            0.00000 [K]
	------------------------------------------------------------------------------
	Average              0.00000 [K] +/-            0.00000 [K]

Average Cation Bend angle inversion energy:
===========================================
	Block[ 0]            0.00000 [K]
	Block[ 1]            0.00000 [K]
	Block[ 2]            0.00000 [K]
	Block[ 3]            0.00000 [K]
	Block[ 4]            0.00000 [K]
	------------------------------------------------------------------------------
	Average              0.00000 [K] +/-            0.00000 [K]

Average Cation Torsion energy:
==============================
	Block[ 0]            0.00000 [K]
	Block[ 1]            0.00000 [K]
	Block[ 2]            0.00000 [K]
	Block[ 3]            0.00000 [K]
	Block[ 4]            0.00000 [K]
	------------------------------------------------------------------------------
	Average              0.00000 [K] +/-            0.00000 [K]

Average Cation Improper Torsion energy:
=======================================
	Block[ 0]            0.00000 [K]
	Block[ 1]            0.00000 [K]
	Block[ 2]            0.00000 [K]
	Block[ 3]            0.00000 [K]
	Block[ 4]            0.00000 [K]
	------------------------------------------------------------------------------
	Average              0.00000 [K] +/-            0.00000 [K]

Average Cation Bond-Bond cross term energy:
=================================================
	Block[ 0]            0.00000 [K]
	Block[ 1]            0.00000 [K]
	Block[ 2]            0.00000 [K]
	Block[ 3]            0.00000 [K]
	Block[ 4]            0.00000 [K]
	------------------------------------------------------------------------------
	Average              0.00000 [K] +/-            0.00000 [K]

Average Cation Bend-Bend cross term energy:
===========================================
	Block[ 0]            0.00000 [K]
	Block[ 1]            0.00000 [K]
	Block[ 2]            0.00000 [K]
	Block[ 3]            0.00000 [K]
	Block[ 4]            0.00000 [K]
	------------------------------------------------------------------------------
	Average              0.00000 [K] +/-            0.00000 [K]

Average Cation Bond-Bend cross term energy:
==============================================
	Block[ 0]            0.00000 [K]
	Block[ 1]            0.00000 [K]
	Block[ 2]            0.00000 [K]
	Block[ 3]            0.00000 [K]
	Block[ 4]            0.00000 [K]
	------------------------------------------------------------------------------
	Average              0.00000 [K] +/-            0.00000 [K]

Average Cation Bond-Torsion cross term energy:
==============================================
	Block[ 0]            0.00000 [K]
	Block[ 1]            0.00000 [K]
	Block[ 2]            0.00000 [K]
	Block[ 3]            0.00000 [K]
	Block[ 4]            0.00000 [K]
	------------------------------------------------------------------------------
	Average              0.00000 [K] +/-            0.00000 [K]

Average Cation Bend-Torsion cross term energy:
==============================================
	Block[ 0]            0.00000 [K]
	Block[ 1]            0.00000 [K]
	Block[ 2]            0.00000 [K]
	Block[ 3]            0.00000 [K]
	Block[ 4]            0.00000 [K]
	------------------------------------------------------------------------------
	Average              0.00000 [K] +/-            0.00000 [K]

Average Cation Intra Van der Waals energy:
==========================================
	Block[ 0]            0.00000 [K]
	Block[ 1]            0.00000 [K]
	Block[ 2]            0.00000 [K]
	Block[ 3]            0.00000 [K]
	Block[ 4]            0.00000 [K]
	------------------------------------------------------------------------------
	Average              0.00000 [K] +/-            0.00000 [K]

Average Cation Intra charge-charge Coulomb energy:
====================================
	Block[ 0]            0.00000 [K]
	Block[ 1]            0.00000 [K]
	Block[ 2]            0.00000 [K]
	Block[ 3]            0.00000 [K]
	Block[ 4]            0.00000 [K]
	------------------------------------------------------------------------------
	Average              0.00000 [K] +/-            0.00000 [K]

Average Cation Intra charge-bonddipole Coulomb energy:
====================================
	Block[ 0]            0.00000 [K]
	Block[ 1]            0.00000 [K]
	Block[ 2]            0.00000 [K]
	Block[ 3]            0.00000 [K]
	Block[ 4]            0.00000 [K]
	------------------------------------------------------------------------------
	Average              0.00000 [K] +/-            0.00000 [K]

Average Cation Intra bonddipole-bonddipole Coulomb energy:
====================================
	Block[ 0]            0.00000 [K]
	Block[ 1]            0.00000 [K]
	Block[ 2]            0.00000 [K]
	Block[ 3]            0.00000 [K]
	Block[ 4]            0.00000 [K]
	------------------------------------------------------------------------------
	Average              0.00000 [K] +/-            0.00000 [K]

Average Host-Host energy:
=========================
	Block[ 0] 0.00000            Van der Waals: 0.00000            Coulomb: 0.00000            [K]
	Block[ 1] 0.00000            Van der Waals: 0.00000            Coulomb: 0.00000            [K]
	Block[ 2] 0.00000            Van der Waals: 0.00000            Coulomb: 0.00000            [K]
	Block[ 3] 0.00000            Van der Waals: 0.00000            Coulomb: 0.00000            [K]
	Block[ 4] 0.00000            Van der Waals: 0.00000            Coulomb: 0.00000            [K]
	------------------------------------------------------------------------------
	Average   0.00000            Van der Waals: 0.000000           Coulomb: 0.00000            [K]
	      +/- 0.00000                       +/- 0.000000                +/- 0.00000            [K]

Average Adsorbate-Adsorbate energy:
===================================
	Block[ 0] 0.00000            Van der Waals: 0.00000            Coulomb: 0.00000            [K]
	Block[ 1] 0.00000            Van der Waals: 0.00000            Coulomb: 0.00000            [K]
	Block[ 2] 0.00000            Van der Waals: 0.00000            Coulomb: 0.00000            [K]
	Block[ 3] 0.00000            Van der Waals: 0.00000            Coulomb: 0.00000            [K]
	Block[ 4] 0.00000            Van der Waals: 0.00000            Coulomb: 0.00000            [K]
	------------------------------------------------------------------------------
	Average   0.00000            Van der Waals: 0.000000           Coulomb: 0.00000            [K]
	      +/- 0.00000                       +/- 0.000000                +/- 0.00000            [K]

Average Cation-Cation energy:
=============================
	Block[ 0] 0.00000            Van der Waals: 0.00000            Coulomb: 0.00000            [K]
	Block[ 1] 0.00000            Van der Waals: 0.00000            Coulomb: 0.00000            [K]
	Block[ 2] 0.00000            Van der Waals: 0.00000            Coulomb: 0.00000            [K]
	Block[ 3] 0.00000            Van der Waals: 0.00000            Coulomb: 0.00000            [K]
	Block[ 4] 0.00000            Van der Waals: 0.00000            Coulomb: 0.00000            [K]
	------------------------------------------------------------------------------
	Average   0.00000            Van der Waals: 0.000000           Coulomb: 0.00000            [K]
	      +/- 0.00000                       +/- 0.000000                +/- 0.00000            [K]

Average Host-Adsorbate energy:
==============================
	Block[ 0] 0.00000            Van der Waals: 0.00000            Coulomb: 0.00000            [K]
	Block[ 1] 0.00000            Van der Waals: 0.00000            Coulomb: 0.00000            [K]
	Block[ 2] 0.00000            Van der Waals: 0.00000            Coulomb: 0.00000            [K]
	Block[ 3] 0.00000            Van der Waals: 0.00000            Coulomb: 0.00000            [K]
	Block[ 4] 0.00000            Van der Waals: 0.00000            Coulomb: 0.00000            [K]
	------------------------------------------------------------------------------
	Average   0.00000            Van der Waals: 0.000000           Coulomb: 0.00000            [K]
	      +/- 0.00000                       +/- 0.000000                +/- 0.00000            [K]

Average Host-Cation energy:
===========================
	Block[ 0] 0.00000            Van der Waals: 0.00000            Coulomb: 0.00000            [K]
	Block[ 1] 0.00000            Van der Waals: 0.00000            Coulomb: 0.00000            [K]
	Block[ 2] 0.00000            Van der Waals: 0.00000            Coulomb: 0.00000            [K]
	Block[ 3] 0.00000            Van der Waals: 0.00000            Coulomb: 0.00000            [K]
	Block[ 4] 0.00000            Van der Waals: 0.00000            Coulomb: 0.00000            [K]
	------------------------------------------------------------------------------
	Average   0.00000            Van der Waals: 0.000000           Coulomb: 0.00000            [K]
	      +/- 0.00000                       +/- 0.000000                +/- 0.00000            [K]

Average Adsorbate-Cation energy:
================================
	Block[ 0] 0.00000            Van der Waals: 0.00000            Coulomb: 0.00000            [K]
	Block[ 1] 0.00000            Van der Waals: 0.00000            Coulomb: 0.00000            [K]
	Block[ 2] 0.00000            Van der Waals: 0.00000            Coulomb: 0.00000            [K]
	Block[ 3] 0.00000            Van der Waals: 0.00000            Coulomb: 0.00000            [K]
	Block[ 4] 0.00000            Van der Waals: 0.00000            Coulomb: 0.00000            [K]
	------------------------------------------------------------------------------
	Average   0.00000            Van der Waals: 0.000000           Coulomb: 0.00000            [K]
	      +/- 0.00000                       +/- 0.000000                +/- 0.00000            [K]

Host polarization energy:
=======================
	Block[ 0]            0.00000 [K]
	Block[ 1]            0.00000 [K]
	Block[ 2]            0.00000 [K]
	Block[ 3]            0.00000 [K]
	Block[ 4]            0.00000 [K]
	------------------------------------------------------------------------------
	Average              0.00000 [K] +/-            0.00000 [K]

Adsorbate polarization energy:
=======================
	Block[ 0]            0.00000 [K]
	Block[ 1]            0.00000 [K]
	Block[ 2]            0.00000 [K]
	Block[ 3]            0.00000 [K]
	Block[ 4]            0.00000 [K]
	------------------------------------------------------------------------------
	Average              0.00000 [K] +/-            0.00000 [K]

Cation polarization energy:
=======================
	Block[ 0]            0.00000 [K]
	Block[ 1]            0.00000 [K]
	Block[ 2]            0.00000 [K]
	Block[ 3]            0.00000 [K]
	Block[ 4]            0.00000 [K]
	------------------------------------------------------------------------------
	Average              0.00000 [K] +/-            0.00000 [K]

Host back-polarization energy:
=======================
	Block[ 0]            0.00000 [K]
	Block[ 1]            0.00000 [K]
	Block[ 2]            0.00000 [K]
	Block[ 3]            0.00000 [K]
	Block[ 4]            0.00000 [K]
	------------------------------------------------------------------------------
	Average              0.00000 [K] +/-            0.00000 [K]

Adsorbate back-polarization energy:
=======================
	Block[ 0]            0.00000 [K]
	Block[ 1]            0.00000 [K]
	Block[ 2]            0.00000 [K]
	Block[ 3]            0.00000 [K]
	Block[ 4]            0.00000 [K]
	------------------------------------------------------------------------------
	Average              0.00000 [K] +/-            0.00000 [K]

Cation back-polarization energy:
=======================
	Block[ 0]            0.00000 [K]
	Block[ 1]            0.00000 [K]
	Block[ 2]            0.00000 [K]
	Block[ 3]            0.00000 [K]
	Block[ 4]            0.00000 [K]
	------------------------------------------------------------------------------
	Average              0.00000 [K] +/-            0.00000 [K]

Tail-correction energy:
=======================
	Block[ 0]            0.00000 [K]
	Block[ 1]            0.00000 [K]
	Block[ 2]            0.00000 [K]
	Block[ 3]            0.00000 [K]
	Block[ 4]            0.00000 [K]
	------------------------------------------------------------------------------
	Average              0.00000 [K] +/-            0.00000 [K]

Distance-constraints energy:
=======================
	Block[ 0]            0.00000 [K]
	Block[ 1]            0.00000 [K]
	Block[ 2]            0.00000 [K]
	Block[ 3]            0.00000 [K]
	Block[ 4]            0.00000 [K]
	------------------------------------------------------------------------------
	Average              0.00000 [K] +/-            0.00000 [K]

Angle-constraints energy:
=======================
	Block[ 0]            0.00000 [K]
	Block[ 1]            0.00000 [K]
	Block[ 2]            0.00000 [K]
	Block[ 3]            0.00000 [K]
	Block[ 4]            0.00000 [K]
	------------------------------------------------------------------------------
	Average              0.00000 [K] +/-            0.00000 [K]

Dihedral-constraints energy:
=======================
	Block[ 0]            0.00000 [K]
	Block[ 1]            0.00000 [K]
	Block[ 2]            0.00000 [K]
	Block[ 3]            0.00000 [K]
	Block[ 4]            0.00000 [K]
	------------------------------------------------------------------------------
	Average              0.00000 [K] +/-            0.00000 [K]

Inversion-bend constraints energy:
=======================
	Block[ 0]            0.00000 [K]
	Block[ 1]            0.00000 [K]
	Block[ 2]            0.00000 [K]
	Block[ 3]            0.00000 [K]
	Block[ 4]            0.00000 [K]
	------------------------------------------------------------------------------
	Average              0.00000 [K] +/-            0.00000 [K]

Out-of-plane-distance constraints energy:
=======================
	Block[ 0]            0.00000 [K]
	Block[ 1]            0.00000 [K]
	Block[ 2]            0.00000 [K]
	Block[ 3]            0.00000 [K]
	Block[ 4]            0.00000 [K]
	------------------------------------------------------------------------------
	Average              0.00000 [K] +/-            0.00000 [K]

Exclusion-constraints energy:
=======================
	Block[ 0]            0.00000 [K]
	Block[ 1]            0.00000 [K]
	Block[ 2]            0.00000 [K]
	Block[ 3]            0.00000 [K]
	Block[ 4]            0.00000 [K]
	------------------------------------------------------------------------------
	Average              0.00000 [K] +/-            0.00000 [K]

Total energy:
=============
	Block[ 0]            0.00000 [K]
	Block[ 1]            0.00000 [K]
	Block[ 2]            0.00000 [K]
	Block[ 3]            0.00000 [K]
	Block[ 4]            0.00000 [K]
	------------------------------------------------------------------------------
	Average              0.00000 [K] +/-            0.00000 [K]

Number of molecules:
====================


Average Widom Rosenbluth factor:
================================

Average Henry coefficient:
==========================

Average adsorption energy <U_gh>_1-<U_h>_0 obtained from Widom-insertion:
(Note: the total heat of adsorption is dH=<U_gh>_1-<U_h>_0 - <U_g> - RT)
=========================================================================

Simulation finished,  0 warnings

Thu Apr 18 12:10:09 2013
Simulation finished on Thursday, April 18.
The end time was 12:10 PM.

