# vtk DataFile Version 1.0
Cube
ASCII

DATASET POLYDATA
POINTS 600 float
23.748423 3.153689 0.880473
23.712531 0.913353 3.116794
22.340620 0.007530 2.650454
22.340620 25.106530 2.650454
25.071391 25.028723 3.554018
24.230575 1.902504 1.784539
23.359639 1.822187 4.517820
7.625327 3.121061 0.880473
7.661219 5.361397 3.116794
9.033130 6.267220 2.650454
6.302359 6.345027 3.554018
7.143175 4.372246 1.784539
8.014111 4.452563 4.517820
23.748423 3.121061 5.394277
23.712531 5.361397 3.157956
22.340620 6.267220 3.624296
25.071391 6.345027 2.720732
24.230575 4.372246 4.490211
23.359639 4.452563 1.756930
7.625327 3.153689 5.394277
7.661219 0.913353 3.157956
9.033130 0.007530 3.624296
9.033130 25.106530 3.624296
6.302359 25.028723 2.720732
7.143175 1.902504 4.490211
8.014111 1.822187 1.756930
0.880473 23.748423 3.153689
3.116794 23.712531 0.913353
2.650454 22.340620 0.007530
2.650454 22.340620 25.106530
3.554018 25.071391 25.028723
1.784539 24.230575 1.902504
4.517820 23.359639 1.822187
5.394277 7.625327 3.153689
3.157956 7.661219 0.913353
3.624296 9.033130 0.007530
3.624296 9.033130 25.106530
2.720732 6.302359 25.028723
4.490211 7.143175 1.902504
1.756930 8.014111 1.822187
0.880473 7.625327 3.121061
3.116794 7.661219 5.361397
2.650454 9.033130 6.267220
3.554018 6.302359 6.345027
1.784539 7.143175 4.372246
4.517820 8.014111 4.452563
5.394277 23.748423 3.121061
3.157956 23.712531 5.361397
3.624296 22.340620 6.267220
2.720732 25.071391 6.345027
4.490211 24.230575 4.372246
1.756930 23.359639 4.452563
3.153689 0.880473 23.748423
0.913353 3.116794 23.712531
0.007530 2.650454 22.340620
25.106530 2.650454 22.340620
25.028723 3.554018 25.071391
1.902504 1.784539 24.230575
1.822187 4.517820 23.359639
3.153689 5.394277 7.625327
0.913353 3.157956 7.661219
0.007530 3.624296 9.033130
25.106530 3.624296 9.033130
25.028723 2.720732 6.302359
1.902504 4.490211 7.143175
1.822187 1.756930 8.014111
3.121061 0.880473 7.625327
5.361397 3.116794 7.661219
6.267220 2.650454 9.033130
6.345027 3.554018 6.302359
4.372246 1.784539 7.143175
4.452563 4.517820 8.014111
3.121061 5.394277 23.748423
5.361397 3.157956 23.712531
6.267220 3.624296 22.340620
6.345027 2.720732 25.071391
4.372246 4.490211 24.230575
4.452563 1.756930 23.359639
1.350577 21.945311 24.218527
1.386469 24.185647 21.982206
2.758380 -0.007530 22.448546
2.758380 25.091470 22.448546
0.027609 0.070277 21.544982
0.868425 23.196496 23.314461
1.739361 23.276813 20.581180
17.473673 21.977939 24.218527
17.437781 19.737603 21.982206
16.065870 18.831780 22.448546
18.796641 18.753973 21.544982
17.955825 20.726754 23.314461
17.084889 20.646437 20.581180
1.350577 21.977939 19.704723
1.386469 19.737603 21.941044
2.758380 18.831780 21.474704
0.027609 18.753973 22.378268
0.868425 20.726754 20.608789
1.739361 20.646437 23.342070
17.473673 21.945311 19.704723
17.437781 24.185647 21.941044
16.065870 -0.007530 21.474704
16.065870 25.091470 21.474704
18.796641 0.070277 22.378268
17.955825 23.196496 20.608789
17.084889 23.276813 23.342070
24.218527 1.350577 21.945311
21.982206 1.386469 24.185647
22.448546 2.758380 -0.007530
22.448546 2.758380 25.091470
21.544982 0.027609 0.070277
23.314461 0.868425 23.196496
20.581180 1.739361 23.276813
19.704723 17.473673 21.945311
21.941044 17.437781 24.185647
21.474704 16.065870 -0.007530
21.474704 16.065870 25.091470
22.378268 18.796641 0.070277
20.608789 17.955825 23.196496
23.342070 17.084889 23.276813
24.218527 17.473673 21.977939
21.982206 17.437781 19.737603
22.448546 16.065870 18.831780
21.544982 18.796641 18.753973
23.314461 17.955825 20.726754
20.581180 17.084889 20.646437
19.704723 1.350577 21.977939
21.941044 1.386469 19.737603
21.474704 2.758380 18.831780
22.378268 0.027609 18.753973
20.608789 0.868425 20.726754
23.342070 1.739361 20.646437
21.945311 24.218527 1.350577
24.185647 21.982206 1.386469
-0.007530 22.448546 2.758380
25.091470 22.448546 2.758380
0.070277 21.544982 0.027609
23.196496 23.314461 0.868425
23.276813 20.581180 1.739361
21.945311 19.704723 17.473673
24.185647 21.941044 17.437781
-0.007530 21.474704 16.065870
25.091470 21.474704 16.065870
0.070277 22.378268 18.796641
23.196496 20.608789 17.955825
23.276813 23.342070 17.084889
21.977939 24.218527 17.473673
19.737603 21.982206 17.437781
18.831780 22.448546 16.065870
18.753973 21.544982 18.796641
20.726754 23.314461 17.955825
20.646437 20.581180 17.084889
21.977939 19.704723 1.350577
19.737603 21.941044 1.386469
18.831780 21.474704 2.758380
18.753973 22.378268 0.027609
20.726754 20.608789 0.868425
20.646437 23.342070 1.739361
23.748423 15.703189 13.429973
23.712531 13.462853 15.666294
22.340620 12.557030 15.199954
25.071391 12.479223 16.103518
24.230575 14.452004 14.334039
23.359639 14.371687 17.067320
7.625327 15.670561 13.429973
7.661219 17.910897 15.666294
9.033130 18.816720 15.199954
6.302359 18.894527 16.103518
7.143175 16.921746 14.334039
8.014111 17.002063 17.067320
23.748423 15.670561 17.943777
23.712531 17.910897 15.707456
22.340620 18.816720 16.173796
25.071391 18.894527 15.270232
24.230575 16.921746 17.039711
23.359639 17.002063 14.306430
7.625327 15.703189 17.943777
7.661219 13.462853 15.707456
9.033130 12.557030 16.173796
6.302359 12.479223 15.270232
7.143175 14.452004 17.039711
8.014111 14.371687 14.306430
0.880473 11.198923 15.703189
3.116794 11.163031 13.462853
2.650454 9.791120 12.557030
3.554018 12.521891 12.479223
1.784539 11.681075 14.452004
4.517820 10.810139 14.371687
5.394277 20.174827 15.703189
3.157956 20.210719 13.462853
3.624296 21.582630 12.557030
2.720732 18.851859 12.479223
4.490211 19.692675 14.452004
1.756930 20.563611 14.371687
0.880473 20.174827 15.670561
3.116794 20.210719 17.910897
2.650454 21.582630 18.816720
3.554018 18.851859 18.894527
1.784539 19.692675 16.921746
4.517820 20.563611 17.002063
5.394277 11.198923 15.670561
3.157956 11.163031 17.910897
3.624296 9.791120 18.816720
2.720732 12.521891 18.894527
4.490211 11.681075 16.921746
1.756930 10.810139 17.002063
3.153689 13.429973 11.198923
0.913353 15.666294 11.163031
0.007530 15.199954 9.791120
25.106530 15.199954 9.791120
25.028723 16.103518 12.521891
1.902504 14.334039 11.681075
1.822187 17.067320 10.810139
3.153689 17.943777 20.174827
0.913353 15.707456 20.210719
0.007530 16.173796 21.582630
25.106530 16.173796 21.582630
25.028723 15.270232 18.851859
1.902504 17.039711 19.692675
1.822187 14.306430 20.563611
3.121061 13.429973 20.174827
5.361397 15.666294 20.210719
6.267220 15.199954 21.582630
6.345027 16.103518 18.851859
4.372246 14.334039 19.692675
4.452563 17.067320 20.563611
3.121061 17.943777 11.198923
5.361397 15.707456 11.163031
6.267220 16.173796 9.791120
6.345027 15.270232 12.521891
4.372246 17.039711 11.681075
4.452563 14.306430 10.810139
1.350577 9.395811 11.669027
1.386469 11.636147 9.432706
2.758380 12.541970 9.899046
0.027609 12.619777 8.995482
0.868425 10.646996 10.764961
1.739361 10.727313 8.031680
17.473673 9.428439 11.669027
17.437781 7.188103 9.432706
16.065870 6.282280 9.899046
18.796641 6.204473 8.995482
17.955825 8.177254 10.764961
17.084889 8.096937 8.031680
1.350577 9.428439 7.155223
1.386469 7.188103 9.391544
2.758380 6.282280 8.925204
0.027609 6.204473 9.828768
0.868425 8.177254 8.059289
1.739361 8.096937 10.792570
17.473673 9.395811 7.155223
17.437781 11.636147 9.391544
16.065870 12.541970 8.925204
18.796641 12.619777 9.828768
17.955825 10.646996 8.059289
17.084889 10.727313 10.792570
24.218527 13.900077 9.395811
21.982206 13.935969 11.636147
22.448546 15.307880 12.541970
21.544982 12.577109 12.619777
23.314461 13.417925 10.646996
20.581180 14.288861 10.727313
19.704723 4.924173 9.395811
21.941044 4.888281 11.636147
21.474704 3.516370 12.541970
22.378268 6.247141 12.619777
20.608789 5.406325 10.646996
23.342070 4.535389 10.727313
24.218527 4.924173 9.428439
21.982206 4.888281 7.188103
22.448546 3.516370 6.282280
21.544982 6.247141 6.204473
23.314461 5.406325 8.177254
20.581180 4.535389 8.096937
19.704723 13.900077 9.428439
21.941044 13.935969 7.188103
21.474704 15.307880 6.282280
22.378268 12.577109 6.204473
20.608789 13.417925 8.177254
23.342070 14.288861 8.096937
21.945311 11.669027 13.900077
24.185647 9.432706 13.935969
-0.007530 9.899046 15.307880
25.091470 9.899046 15.307880
0.070277 8.995482 12.577109
23.196496 10.764961 13.417925
23.276813 8.031680 14.288861
21.945311 7.155223 4.924173
24.185647 9.391544 4.888281
-0.007530 8.925204 3.516370
25.091470 8.925204 3.516370
0.070277 9.828768 6.247141
23.196496 8.059289 5.406325
23.276813 10.792570 4.535389
21.977939 11.669027 4.924173
19.737603 9.432706 4.888281
18.831780 9.899046 3.516370
18.753973 8.995482 6.247141
20.726754 10.764961 5.406325
20.646437 8.031680 4.535389
21.977939 7.155223 13.900077
19.737603 9.391544 13.935969
18.831780 8.925204 15.307880
18.753973 9.828768 12.577109
20.726754 8.059289 13.417925
20.646437 10.792570 14.288861
11.198923 3.153689 13.429973
11.163031 0.913353 15.666294
9.791120 0.007530 15.199954
9.791120 25.106530 15.199954
12.521891 25.028723 16.103518
11.681075 1.902504 14.334039
10.810139 1.822187 17.067320
20.174827 3.121061 13.429973
20.210719 5.361397 15.666294
21.582630 6.267220 15.199954
18.851859 6.345027 16.103518
19.692675 4.372246 14.334039
20.563611 4.452563 17.067320
11.198923 3.121061 17.943777
11.163031 5.361397 15.707456
9.791120 6.267220 16.173796
12.521891 6.345027 15.270232
11.681075 4.372246 17.039711
10.810139 4.452563 14.306430
20.174827 3.153689 17.943777
20.210719 0.913353 15.707456
21.582630 0.007530 16.173796
21.582630 25.106530 16.173796
18.851859 25.028723 15.270232
19.692675 1.902504 17.039711
20.563611 1.822187 14.306430
13.429973 23.748423 15.703189
15.666294 23.712531 13.462853
15.199954 22.340620 12.557030
16.103518 25.071391 12.479223
14.334039 24.230575 14.452004
17.067320 23.359639 14.371687
17.943777 7.625327 15.703189
15.707456 7.661219 13.462853
16.173796 9.033130 12.557030
15.270232 6.302359 12.479223
17.039711 7.143175 14.452004
14.306430 8.014111 14.371687
13.429973 7.625327 15.670561
15.666294 7.661219 17.910897
15.199954 9.033130 18.816720
16.103518 6.302359 18.894527
14.334039 7.143175 16.921746
17.067320 8.014111 17.002063
17.943777 23.748423 15.670561
15.707456 23.712531 17.910897
16.173796 22.340620 18.816720
15.270232 25.071391 18.894527
17.039711 24.230575 16.921746
14.306430 23.359639 17.002063
15.703189 0.880473 11.198923
13.462853 3.116794 11.163031
12.557030 2.650454 9.791120
12.479223 3.554018 12.521891
14.452004 1.784539 11.681075
14.371687 4.517820 10.810139
15.703189 5.394277 20.174827
13.462853 3.157956 20.210719
12.557030 3.624296 21.582630
12.479223 2.720732 18.851859
14.452004 4.490211 19.692675
14.371687 1.756930 20.563611
15.670561 0.880473 20.174827
17.910897 3.116794 20.210719
18.816720 2.650454 21.582630
18.894527 3.554018 18.851859
16.921746 1.784539 19.692675
17.002063 4.517820 20.563611
15.670561 5.394277 11.198923
17.910897 3.157956 11.163031
18.816720 3.624296 9.791120
18.894527 2.720732 12.521891
16.921746 4.490211 11.681075
17.002063 1.756930 10.810139
13.900077 21.945311 11.669027
13.935969 24.185647 9.432706
15.307880 -0.007530 9.899046
15.307880 25.091470 9.899046
12.577109 0.070277 8.995482
13.417925 23.196496 10.764961
14.288861 23.276813 8.031680
4.924173 21.977939 11.669027
4.888281 19.737603 9.432706
3.516370 18.831780 9.899046
6.247141 18.753973 8.995482
5.406325 20.726754 10.764961
4.535389 20.646437 8.031680
13.900077 21.977939 7.155223
13.935969 19.737603 9.391544
15.307880 18.831780 8.925204
12.577109 18.753973 9.828768
13.417925 20.726754 8.059289
14.288861 20.646437 10.792570
4.924173 21.945311 7.155223
4.888281 24.185647 9.391544
3.516370 -0.007530 8.925204
3.516370 25.091470 8.925204
6.247141 0.070277 9.828768
5.406325 23.196496 8.059289
4.535389 23.276813 10.792570
11.669027 1.350577 9.395811
9.432706 1.386469 11.636147
9.899046 2.758380 12.541970
8.995482 0.027609 12.619777
10.764961 0.868425 10.646996
8.031680 1.739361 10.727313
7.155223 17.473673 9.395811
9.391544 17.437781 11.636147
8.925204 16.065870 12.541970
9.828768 18.796641 12.619777
8.059289 17.955825 10.646996
10.792570 17.084889 10.727313
11.669027 17.473673 9.428439
9.432706 17.437781 7.188103
9.899046 16.065870 6.282280
8.995482 18.796641 6.204473
10.764961 17.955825 8.177254
8.031680 17.084889 8.096937
7.155223 1.350577 9.428439
9.391544 1.386469 7.188103
8.925204 2.758380 6.282280
9.828768 0.027609 6.204473
8.059289 0.868425 8.177254
10.792570 1.739361 8.096937
9.395811 24.218527 13.900077
11.636147 21.982206 13.935969
12.541970 22.448546 15.307880
12.619777 21.544982 12.577109
10.646996 23.314461 13.417925
10.727313 20.581180 14.288861
9.395811 19.704723 4.924173
11.636147 21.941044 4.888281
12.541970 21.474704 3.516370
12.619777 22.378268 6.247141
10.646996 20.608789 5.406325
10.727313 23.342070 4.535389
9.428439 24.218527 4.924173
7.188103 21.982206 4.888281
6.282280 22.448546 3.516370
6.204473 21.544982 6.247141
8.177254 23.314461 5.406325
8.096937 20.581180 4.535389
9.428439 19.704723 13.900077
7.188103 21.941044 13.935969
6.282280 21.474704 15.307880
6.204473 22.378268 12.577109
8.177254 20.608789 13.417925
8.096937 23.342070 14.288861
11.198923 15.703189 0.880473
11.163031 13.462853 3.116794
9.791120 12.557030 2.650454
12.521891 12.479223 3.554018
11.681075 14.452004 1.784539
10.810139 14.371687 4.517820
20.174827 15.670561 0.880473
20.210719 17.910897 3.116794
21.582630 18.816720 2.650454
18.851859 18.894527 3.554018
19.692675 16.921746 1.784539
20.563611 17.002063 4.517820
11.198923 15.670561 5.394277
11.163031 17.910897 3.157956
9.791120 18.816720 3.624296
12.521891 18.894527 2.720732
11.681075 16.921746 4.490211
10.810139 17.002063 1.756930
20.174827 15.703189 5.394277
20.210719 13.462853 3.157956
21.582630 12.557030 3.624296
18.851859 12.479223 2.720732
19.692675 14.452004 4.490211
20.563611 14.371687 1.756930
13.429973 11.198923 3.153689
15.666294 11.163031 0.913353
15.199954 9.791120 0.007530
15.199954 9.791120 25.106530
16.103518 12.521891 25.028723
14.334039 11.681075 1.902504
17.067320 10.810139 1.822187
17.943777 20.174827 3.153689
15.707456 20.210719 0.913353
16.173796 21.582630 0.007530
16.173796 21.582630 25.106530
15.270232 18.851859 25.028723
17.039711 19.692675 1.902504
14.306430 20.563611 1.822187
13.429973 20.174827 3.121061
15.666294 20.210719 5.361397
15.199954 21.582630 6.267220
16.103518 18.851859 6.345027
14.334039 19.692675 4.372246
17.067320 20.563611 4.452563
17.943777 11.198923 3.121061
15.707456 11.163031 5.361397
16.173796 9.791120 6.267220
15.270232 12.521891 6.345027
17.039711 11.681075 4.372246
14.306430 10.810139 4.452563
15.703189 13.429973 23.748423
13.462853 15.666294 23.712531
12.557030 15.199954 22.340620
12.479223 16.103518 25.071391
14.452004 14.334039 24.230575
14.371687 17.067320 23.359639
15.703189 17.943777 7.625327
13.462853 15.707456 7.661219
12.557030 16.173796 9.033130
12.479223 15.270232 6.302359
14.452004 17.039711 7.143175
14.371687 14.306430 8.014111
15.670561 13.429973 7.625327
17.910897 15.666294 7.661219
18.816720 15.199954 9.033130
18.894527 16.103518 6.302359
16.921746 14.334039 7.143175
17.002063 17.067320 8.014111
15.670561 17.943777 23.748423
17.910897 15.707456 23.712531
18.816720 16.173796 22.340620
18.894527 15.270232 25.071391
16.921746 17.039711 24.230575
17.002063 14.306430 23.359639
13.900077 9.395811 24.218527
13.935969 11.636147 21.982206
15.307880 12.541970 22.448546
12.577109 12.619777 21.544982
13.417925 10.646996 23.314461
14.288861 10.727313 20.581180
4.924173 9.428439 24.218527
4.888281 7.188103 21.982206
3.516370 6.282280 22.448546
6.247141 6.204473 21.544982
5.406325 8.177254 23.314461
4.535389 8.096937 20.581180
13.900077 9.428439 19.704723
13.935969 7.188103 21.941044
15.307880 6.282280 21.474704
12.577109 6.204473 22.378268
13.417925 8.177254 20.608789
14.288861 8.096937 23.342070
4.924173 9.395811 19.704723
4.888281 11.636147 21.941044
3.516370 12.541970 21.474704
6.247141 12.619777 22.378268
5.406325 10.646996 20.608789
4.535389 10.727313 23.342070
11.669027 13.900077 21.945311
9.432706 13.935969 24.185647
9.899046 15.307880 -0.007530
9.899046 15.307880 25.091470
8.995482 12.577109 0.070277
10.764961 13.417925 23.196496
8.031680 14.288861 23.276813
7.155223 4.924173 21.945311
9.391544 4.888281 24.185647
8.925204 3.516370 -0.007530
8.925204 3.516370 25.091470
9.828768 6.247141 0.070277
8.059289 5.406325 23.196496
10.792570 4.535389 23.276813
11.669027 4.924173 21.977939
9.432706 4.888281 19.737603
9.899046 3.516370 18.831780
8.995482 6.247141 18.753973
10.764961 5.406325 20.726754
8.031680 4.535389 20.646437
7.155223 13.900077 21.977939
9.391544 13.935969 19.737603
8.925204 15.307880 18.831780
9.828768 12.577109 18.753973
8.059289 13.417925 20.726754
10.792570 14.288861 20.646437
9.395811 11.669027 1.350577
11.636147 9.432706 1.386469
12.541970 9.899046 2.758380
12.619777 8.995482 0.027609
10.646996 10.764961 0.868425
10.727313 8.031680 1.739361
9.395811 7.155223 17.473673
11.636147 9.391544 17.437781
12.541970 8.925204 16.065870
12.619777 9.828768 18.796641
10.646996 8.059289 17.955825
10.727313 10.792570 17.084889
9.428439 11.669027 17.473673
7.188103 9.432706 17.437781
6.282280 9.899046 16.065870
6.204473 8.995482 18.796641
8.177254 10.764961 17.955825
8.096937 8.031680 17.084889
9.428439 7.155223 1.350577
7.188103 9.391544 1.386469
6.282280 8.925204 2.758380
6.204473 9.828768 0.027609
8.177254 8.059289 0.868425
8.096937 10.792570 1.739361
POINT_DATA 600
SCALARS my_scalars float
LOOKUP_TABLE default
2.1
2.1
1.52
1.52
1.52
1.52
1.52
2.1
2
1.52
1.52
1.52
1.52
2.1
2
1.52
1.52
1.52
1.52
2.1
2
1.52
1.52
1.52
1.52
1.52
2.1
2
1.52
1.52
1.52
1.52
1.52
2.1
2
1.52
1.52
1.52
1.52
1.52
2.1
2.1
1.52
1.52
1.52
1.52
2.1
2
1.52
1.52
1.52
1.52
2.1
2
1.52
1.52
1.52
1.52
1.52
2.1
2.1
1.52
1.52
1.52
1.52
1.52
2.1
2
1.52
1.52
1.52
1.52
2.1
2
1.52
1.52
1.52
1.52
2.1
2
1.52
1.52
1.52
1.52
1.52
2.1
2
1.52
1.52
1.52
1.52
2.1
2.1
1.52
1.52
1.52
1.52
2.1
2.1
1.52
1.52
1.52
1.52
1.52
2.1
2.1
1.52
1.52
1.52
1.52
1.52
2.1
2
1.52
1.52
1.52
1.52
1.52
2.1
2
1.52
1.52
1.52
1.52
2.1
2
1.52
1.52
1.52
1.52
2.1
2
1.52
1.52
1.52
1.52
1.52
2.1
2
1.52
1.52
1.52
1.52
1.52
2.1
2
1.52
1.52
1.52
1.52
2.1
2.1
1.52
1.52
1.52
1.52
2.1
2
1.52
1.52
1.52
1.52
2.1
2
1.52
1.52
1.52
1.52
2.1
2.1
1.52
1.52
1.52
1.52
2.1
2
1.52
1.52
1.52
1.52
2.1
2
1.52
1.52
1.52
1.52
2.1
2
1.52
1.52
1.52
1.52
2.1
2
1.52
1.52
1.52
1.52
2.1
2
1.52
1.52
1.52
1.52
2.1
2.1
1.52
1.52
1.52
1.52
1.52
2.1
2.1
1.52
1.52
1.52
1.52
1.52
2.1
2.1
1.52
1.52
1.52
1.52
2.1
2.1
1.52
1.52
1.52
1.52
2.1
2.1
1.52
1.52
1.52
1.52
2.1
2
1.52
1.52
1.52
1.52
2.1
2.1
1.52
1.52
1.52
1.52
2.1
2
1.52
1.52
1.52
1.52
2.1
2
1.52
1.52
1.52
1.52
2.1
2
1.52
1.52
1.52
1.52
2.1
2.1
1.52
1.52
1.52
1.52
2.1
2
1.52
1.52
1.52
1.52
2.1
2
1.52
1.52
1.52
1.52
1.52
2.1
2
1.52
1.52
1.52
1.52
1.52
2.1
2
1.52
1.52
1.52
1.52
2.1
2.1
1.52
1.52
1.52
1.52
2.1
2.1
1.52
1.52
1.52
1.52
1.52
2.1
2.1
1.52
1.52
1.52
1.52
2.1
2
1.52
1.52
1.52
1.52
2.1
2.1
1.52
1.52
1.52
1.52
1.52
2.1
2
1.52
1.52
1.52
1.52
2.1
2.1
1.52
1.52
1.52
1.52
2.1
2.1
1.52
1.52
1.52
1.52
2.1
2.1
1.52
1.52
1.52
1.52
2.1
2
1.52
1.52
1.52
1.52
2.1
2.1
1.52
1.52
1.52
1.52
2.1
2.1
1.52
1.52
1.52
1.52
2.1
2
1.52
1.52
1.52
1.52
2.1
2
1.52
1.52
1.52
1.52
1.52
2.1
2
1.52
1.52
1.52
1.52
2.1
2.1
1.52
1.52
1.52
1.52
2.1
2.1
1.52
1.52
1.52
1.52
1.52
2.1
2.1
1.52
1.52
1.52
1.52
2.1
2
1.52
1.52
1.52
1.52
2.1
2
1.52
1.52
1.52
1.52
2.1
2
1.52
1.52
1.52
1.52
2.1
2.1
1.52
1.52
1.52
1.52
2.1
2.1
1.52
1.52
1.52
1.52
2.1
2.1
1.52
1.52
1.52
1.52
2.1
2
1.52
1.52
1.52
1.52
2.1
2
1.52
1.52
1.52
1.52
2.1
2.1
1.52
1.52
1.52
1.52
2.1
2
1.52
1.52
1.52
1.52
2.1
2.1
1.52
1.52
1.52
1.52
2.1
2
1.52
1.52
1.52
1.52
1.52
2.1
2.1
1.52
1.52
1.52
1.52
1.52
2.1
2
1.52
1.52
1.52
1.52
2.1
2
1.52
1.52
1.52
1.52
2.1
2.1
1.52
1.52
1.52
1.52
2.1
2
1.52
1.52
1.52
1.52
2.1
2
1.52
1.52
1.52
1.52
2.1
2.1
1.52
1.52
1.52
1.52
2.1
2
1.52
1.52
1.52
1.52
2.1
2
1.52
1.52
1.52
1.52
2.1
2
1.52
1.52
1.52
1.52
2.1
2
1.52
1.52
1.52
1.52
2.1
2
1.52
1.52
1.52
1.52
1.52
2.1
2
1.52
1.52
1.52
1.52
1.52
2.1
2
1.52
1.52
1.52
1.52
2.1
2
1.52
1.52
1.52
1.52
2.1
2.1
1.52
1.52
1.52
1.52
2.1
2.1
1.52
1.52
1.52
1.52
2.1
2.1
1.52
1.52
1.52
1.52
2.1
2
1.52
1.52
1.52
1.52
VECTORS vectors float
0.125 0 0
0.125 0 0
0.03125 0 0
0.03125 0 0
0.03125 0 0
0.03125 0 0
0.03125 0 0
0.125 0 0
0.21875 0 0
0.03125 0 0
0.03125 0 0
0.03125 0 0
0.03125 0 0
0.125 0 0
0.21875 0 0
0.03125 0 0
0.03125 0 0
0.03125 0 0
0.03125 0 0
0.125 0 0
0.21875 0 0
0.03125 0 0
0.03125 0 0
0.03125 0 0
0.03125 0 0
0.03125 0 0
0.125 0 0
0.21875 0 0
0.03125 0 0
0.03125 0 0
0.03125 0 0
0.03125 0 0
0.03125 0 0
0.125 0 0
0.21875 0 0
0.03125 0 0
0.03125 0 0
0.03125 0 0
0.03125 0 0
0.03125 0 0
0.125 0 0
0.125 0 0
0.03125 0 0
0.03125 0 0
0.03125 0 0
0.03125 0 0
0.125 0 0
0.21875 0 0
0.03125 0 0
0.03125 0 0
0.03125 0 0
0.03125 0 0
0.125 0 0
0.21875 0 0
0.03125 0 0
0.03125 0 0
0.03125 0 0
0.03125 0 0
0.03125 0 0
0.125 0 0
0.125 0 0
0.03125 0 0
0.03125 0 0
0.03125 0 0
0.03125 0 0
0.03125 0 0
0.125 0 0
0.21875 0 0
0.03125 0 0
0.03125 0 0
0.03125 0 0
0.03125 0 0
0.125 0 0
0.21875 0 0
0.03125 0 0
0.03125 0 0
0.03125 0 0
0.03125 0 0
0.125 0 0
0.21875 0 0
0.03125 0 0
0.03125 0 0
0.03125 0 0
0.03125 0 0
0.03125 0 0
0.125 0 0
0.21875 0 0
0.03125 0 0
0.03125 0 0
0.03125 0 0
0.03125 0 0
0.125 0 0
0.125 0 0
0.03125 0 0
0.03125 0 0
0.03125 0 0
0.03125 0 0
0.125 0 0
0.125 0 0
0.03125 0 0
0.03125 0 0
0.03125 0 0
0.03125 0 0
0.03125 0 0
0.125 0 0
0.125 0 0
0.03125 0 0
0.03125 0 0
0.03125 0 0
0.03125 0 0
0.03125 0 0
0.125 0 0
0.21875 0 0
0.03125 0 0
0.03125 0 0
0.03125 0 0
0.03125 0 0
0.03125 0 0
0.125 0 0
0.21875 0 0
0.03125 0 0
0.03125 0 0
0.03125 0 0
0.03125 0 0
0.125 0 0
0.21875 0 0
0.03125 0 0
0.03125 0 0
0.03125 0 0
0.03125 0 0
0.125 0 0
0.21875 0 0
0.03125 0 0
0.03125 0 0
0.03125 0 0
0.03125 0 0
0.03125 0 0
0.125 0 0
0.21875 0 0
0.03125 0 0
0.03125 0 0
0.03125 0 0
0.03125 0 0
0.03125 0 0
0.125 0 0
0.21875 0 0
0.03125 0 0
0.03125 0 0
0.03125 0 0
0.03125 0 0
0.125 0 0
0.125 0 0
0.03125 0 0
0.03125 0 0
0.03125 0 0
0.03125 0 0
0.125 0 0
0.21875 0 0
0.03125 0 0
0.03125 0 0
0.03125 0 0
0.03125 0 0
0.125 0 0
0.21875 0 0
0.03125 0 0
0.03125 0 0
0.03125 0 0
0.03125 0 0
0.125 0 0
0.125 0 0
0.03125 0 0
0.03125 0 0
0.03125 0 0
0.03125 0 0
0.125 0 0
0.21875 0 0
0.03125 0 0
0.03125 0 0
0.03125 0 0
0.03125 0 0
0.125 0 0
0.21875 0 0
0.03125 0 0
0.03125 0 0
0.03125 0 0
0.03125 0 0
0.125 0 0
0.21875 0 0
0.03125 0 0
0.03125 0 0
0.03125 0 0
0.03125 0 0
0.125 0 0
0.21875 0 0
0.03125 0 0
0.03125 0 0
0.03125 0 0
0.03125 0 0
0.125 0 0
0.21875 0 0
0.03125 0 0
0.03125 0 0
0.03125 0 0
0.03125 0 0
0.125 0 0
0.125 0 0
0.03125 0 0
0.03125 0 0
0.03125 0 0
0.03125 0 0
0.03125 0 0
0.125 0 0
0.125 0 0
0.03125 0 0
0.03125 0 0
0.03125 0 0
0.03125 0 0
0.03125 0 0
0.125 0 0
0.125 0 0
0.03125 0 0
0.03125 0 0
0.03125 0 0
0.03125 0 0
0.125 0 0
0.125 0 0
0.03125 0 0
0.03125 0 0
0.03125 0 0
0.03125 0 0
0.125 0 0
0.125 0 0
0.03125 0 0
0.03125 0 0
0.03125 0 0
0.03125 0 0
0.125 0 0
0.21875 0 0
0.03125 0 0
0.03125 0 0
0.03125 0 0
0.03125 0 0
0.125 0 0
0.125 0 0
0.03125 0 0
0.03125 0 0
0.03125 0 0
0.03125 0 0
0.125 0 0
0.21875 0 0
0.03125 0 0
0.03125 0 0
0.03125 0 0
0.03125 0 0
0.125 0 0
0.21875 0 0
0.03125 0 0
0.03125 0 0
0.03125 0 0
0.03125 0 0
0.125 0 0
0.21875 0 0
0.03125 0 0
0.03125 0 0
0.03125 0 0
0.03125 0 0
0.125 0 0
0.125 0 0
0.03125 0 0
0.03125 0 0
0.03125 0 0
0.03125 0 0
0.125 0 0
0.21875 0 0
0.03125 0 0
0.03125 0 0
0.03125 0 0
0.03125 0 0
0.125 0 0
0.21875 0 0
0.03125 0 0
0.03125 0 0
0.03125 0 0
0.03125 0 0
0.03125 0 0
0.125 0 0
0.21875 0 0
0.03125 0 0
0.03125 0 0
0.03125 0 0
0.03125 0 0
0.03125 0 0
0.125 0 0
0.21875 0 0
0.03125 0 0
0.03125 0 0
0.03125 0 0
0.03125 0 0
0.125 0 0
0.125 0 0
0.03125 0 0
0.03125 0 0
0.03125 0 0
0.03125 0 0
0.125 0 0
0.125 0 0
0.03125 0 0
0.03125 0 0
0.03125 0 0
0.03125 0 0
0.03125 0 0
0.125 0 0
0.125 0 0
0.03125 0 0
0.03125 0 0
0.03125 0 0
0.03125 0 0
0.125 0 0
0.21875 0 0
0.03125 0 0
0.03125 0 0
0.03125 0 0
0.03125 0 0
0.125 0 0
0.125 0 0
0.03125 0 0
0.03125 0 0
0.03125 0 0
0.03125 0 0
0.03125 0 0
0.125 0 0
0.21875 0 0
0.03125 0 0
0.03125 0 0
0.03125 0 0
0.03125 0 0
0.125 0 0
0.125 0 0
0.03125 0 0
0.03125 0 0
0.03125 0 0
0.03125 0 0
0.125 0 0
0.125 0 0
0.03125 0 0
0.03125 0 0
0.03125 0 0
0.03125 0 0
0.125 0 0
0.125 0 0
0.03125 0 0
0.03125 0 0
0.03125 0 0
0.03125 0 0
0.125 0 0
0.21875 0 0
0.03125 0 0
0.03125 0 0
0.03125 0 0
0.03125 0 0
0.125 0 0
0.125 0 0
0.03125 0 0
0.03125 0 0
0.03125 0 0
0.03125 0 0
0.125 0 0
0.125 0 0
0.03125 0 0
0.03125 0 0
0.03125 0 0
0.03125 0 0
0.125 0 0
0.21875 0 0
0.03125 0 0
0.03125 0 0
0.03125 0 0
0.03125 0 0
0.125 0 0
0.21875 0 0
0.03125 0 0
0.03125 0 0
0.03125 0 0
0.03125 0 0
0.03125 0 0
0.125 0 0
0.21875 0 0
0.03125 0 0
0.03125 0 0
0.03125 0 0
0.03125 0 0
0.125 0 0
0.125 0 0
0.03125 0 0
0.03125 0 0
0.03125 0 0
0.03125 0 0
0.125 0 0
0.125 0 0
0.03125 0 0
0.03125 0 0
0.03125 0 0
0.03125 0 0
0.03125 0 0
0.125 0 0
0.125 0 0
0.03125 0 0
0.03125 0 0
0.03125 0 0
0.03125 0 0
0.125 0 0
0.21875 0 0
0.03125 0 0
0.03125 0 0
0.03125 0 0
0.03125 0 0
0.125 0 0
0.21875 0 0
0.03125 0 0
0.03125 0 0
0.03125 0 0
0.03125 0 0
0.125 0 0
0.21875 0 0
0.03125 0 0
0.03125 0 0
0.03125 0 0
0.03125 0 0
0.125 0 0
0.125 0 0
0.03125 0 0
0.03125 0 0
0.03125 0 0
0.03125 0 0
0.125 0 0
0.125 0 0
0.03125 0 0
0.03125 0 0
0.03125 0 0
0.03125 0 0
0.125 0 0
0.125 0 0
0.03125 0 0
0.03125 0 0
0.03125 0 0
0.03125 0 0
0.125 0 0
0.21875 0 0
0.03125 0 0
0.03125 0 0
0.03125 0 0
0.03125 0 0
0.125 0 0
0.21875 0 0
0.03125 0 0
0.03125 0 0
0.03125 0 0
0.03125 0 0
0.125 0 0
0.125 0 0
0.03125 0 0
0.03125 0 0
0.03125 0 0
0.03125 0 0
0.125 0 0
0.21875 0 0
0.03125 0 0
0.03125 0 0
0.03125 0 0
0.03125 0 0
0.125 0 0
0.125 0 0
0.03125 0 0
0.03125 0 0
0.03125 0 0
0.03125 0 0
0.125 0 0
0.21875 0 0
0.03125 0 0
0.03125 0 0
0.03125 0 0
0.03125 0 0
0.03125 0 0
0.125 0 0
0.125 0 0
0.03125 0 0
0.03125 0 0
0.03125 0 0
0.03125 0 0
0.03125 0 0
0.125 0 0
0.21875 0 0
0.03125 0 0
0.03125 0 0
0.03125 0 0
0.03125 0 0
0.125 0 0
0.21875 0 0
0.03125 0 0
0.03125 0 0
0.03125 0 0
0.03125 0 0
0.125 0 0
0.125 0 0
0.03125 0 0
0.03125 0 0
0.03125 0 0
0.03125 0 0
0.125 0 0
0.21875 0 0
0.03125 0 0
0.03125 0 0
0.03125 0 0
0.03125 0 0
0.125 0 0
0.21875 0 0
0.03125 0 0
0.03125 0 0
0.03125 0 0
0.03125 0 0
0.125 0 0
0.125 0 0
0.03125 0 0
0.03125 0 0
0.03125 0 0
0.03125 0 0
0.125 0 0
0.21875 0 0
0.03125 0 0
0.03125 0 0
0.03125 0 0
0.03125 0 0
0.125 0 0
0.21875 0 0
0.03125 0 0
0.03125 0 0
0.03125 0 0
0.03125 0 0
0.125 0 0
0.21875 0 0
0.03125 0 0
0.03125 0 0
0.03125 0 0
0.03125 0 0
0.125 0 0
0.21875 0 0
0.03125 0 0
0.03125 0 0
0.03125 0 0
0.03125 0 0
0.125 0 0
0.21875 0 0
0.03125 0 0
0.03125 0 0
0.03125 0 0
0.03125 0 0
0.03125 0 0
0.125 0 0
0.21875 0 0
0.03125 0 0
0.03125 0 0
0.03125 0 0
0.03125 0 0
0.03125 0 0
0.125 0 0
0.21875 0 0
0.03125 0 0
0.03125 0 0
0.03125 0 0
0.03125 0 0
0.125 0 0
0.21875 0 0
0.03125 0 0
0.03125 0 0
0.03125 0 0
0.03125 0 0
0.125 0 0
0.125 0 0
0.03125 0 0
0.03125 0 0
0.03125 0 0
0.03125 0 0
0.125 0 0
0.125 0 0
0.03125 0 0
0.03125 0 0
0.03125 0 0
0.03125 0 0
0.125 0 0
0.125 0 0
0.03125 0 0
0.03125 0 0
0.03125 0 0
0.03125 0 0
0.125 0 0
0.21875 0 0
0.03125 0 0
0.03125 0 0
0.03125 0 0
0.03125 0 0
