Compiler and run-time data
===========================================================================
RASPA 2.0.45
Compiled as a 64-bits application
Compiler: gcc Apple LLVM 12.0.5 (clang-1205.0.22.9)
Compile Date = May 18 2021, Compile Time = 12:54:12

Tue May 18 14:32:44 2021
Simulation started on Tuesday, May 18.
The start time was 02:32 PM.

Cpu data:    x86_64
Cpu Model:   MacPro7,1
Host name:   MacPro.local
OS release:  20.4.0
OS type:     Darwin
OS version:  20E232


Simulation
===========================================================================
Dimensions: 3
Random number seed: 1621341164
RASPA directory set to: /Users/dubbelda/RASPA/simulations/
String appended to output-files: 
Number of cycles: 25000
Number of initializing cycles: 10000
Number of equilibration cycles: 0
Print every: 1000
Triclinic boundary condition applied
Timestep: 0.000500
	Degrees of freedom:                        288
	Translational Degrees of freedom:          288
	Rotational Degrees of freedom:             0
	Degrees of freedom Framework:              0


Mutual consistent basic set of units:
======================================
Unit of temperature: Kelvin
Unit of length:      1e-10 [m]
Unit of time:        1e-12 [s]
Unit of mass:        1.66054e-27 [kg]
Unit of charge:      1.60218e-19 [C/particle]

Derived units and their conversion factors:
===========================================
Unit of energy:              1.66054e-23 [J]
Unit of force:               1.66054e-13 [N]
Unit of pressure:            1.66054e+07 [Pa]
Unit of velocity:            100 [m/s]
Unit of acceleration:        1e-08 [m^2/s]
Unit of diffusion:           1e-08 [m^2/s]
Unit of dipole moment:       1.60218e-29 [C.m]
Unit of electric potential:  0.000103643 [V]
Unit of electric field:      1.03643e+06 [V]
Unit of polarizability:      1.54587e-35 [-]
Unit of Coulomb potential:   167101.0800066561  [K]
Unit of dielectric constant: 0.0000154587       [s^2 C^2/(kg m^3)]
Unit of wave vectors:        5.3088374589       [cm^1]
Boltzmann constant:          0.8314464919       [-]

Internal conversion factors:
===========================================
Energy to Kelvin:                                    1.2027242847
FH correction factor                                 2.0211930949
Heat capacity conversion factor:                    10.0000088723
From Debye to internal units:                        4.8032067991
Isothermal compressibility conversion factor:        0.0000000602

Energy conversion factors:
===========================================
From mdyne/A to kcal/mol/A^2:           143.933
From mdyne/A to kj/mol/A^2:             602.214
From mdyne/A to K/A^2:                  72429.7
From mdyne A/rad^2 to kcal/mol/deg^2:   0.0438444


Properties computed
===========================================================================
Movies: no
Radial Distribution Function: no
Number of molecules GCMC histogram: no
Histogram of the molecule positions: no
Free energy profiles: no
Pore Size Distribution Function: no
End-to-end distance: no
Histogram of the energy of the system: no
Compute thermodynamic factors: no
Framework spacing histograms: no
Residence times histograms: no
Distance histograms: no
Bend Angle histograms: no
Dihedral angle histograms: no
Angle between planes histograms: no
Molecule properties: no
Infra-red spectra: no
Mean-squared displacement using modified order-N algorithm: no
Velocity-autocorrelation function modified order-N algorithm: no
Rotational velocity-autocorrelation function modified order-N algorithm: no
Molecular orientation-autocorrelation function modified order-N algorithm: no
Bond orientation-autocorrelation function modified order-N algorithm: no
Mean-squared displacement (conventional algorithm): no
Velocity-autocorrelation function (conventional algorithm): no
3D density grid for adsorbates: no
Compute cation an/or adsorption sites: no
dcTST snapshots: no
Compute pressure and stress: no


VTK
===========================================================================
VTK fractional-range position framework atoms: [-0.001000,1.001000] [-0.001000,1.001000] [-0.001000,1.001000]
VTK fractional-range position framework bonds: [-0.151000,1.151000] [-0.151000,1.151000] [-0.151000,1.151000]
VTK fractional-range com-position adsorbate molecules: [-0.101000,1.101000] [-0.101000,1.101000] [-0.101000,1.101000]
VTK fractional-range com-position cation molecules: [-0.101000,1.101000] [-0.101000,1.101000] [-0.101000,1.101000]
	3D free energy grid made for the full simulation-cell


Thermo/Baro-stat NHC parameters
===========================================================================
External temperature: 298 [K]
Beta: 0.00403598 [energy unit]
External Pressure: 10000 [Pa]


Thermostat chain-length: 3
Timescale parameter for thermostat: 0.150000 [ps]
Barostat chain-length:   3
Timescale parameter for barostat:   0.150000 [ps]

Number of Yoshida-Suzuki decomposition steps: 5
Number of respa steps: 5


Method and settings for electrostatics
===============================================================================
Dielectric constant of the medium : 1.000000
Charge from charge-equilibration: no
Ewald summation is used (exact solution of a periodic system)
Relative precision                : 1e-06
Alpha convergence parameter       : 0.265058
kvec (x,y,z)                      : 7 7 7


CFC-RXMC parameters
===========================================================================
Number of reactions: 0


Rattle parameters
===========================================================================
Distance constraint type: r^2-r^2_0
Bend angle constraint type: theta-theta_0
Dihedral angle constraint type: phi-phi_0
Inversion-bend angle constraint type: chi-chi_0
Out-of-plane distance constraint type: r-r_0


Spectra parameters
===========================================================================
Compute normal modes: no


Minimization parameters
===========================================================================
Generalized coordinates are: Cartesian center-of-mass, elements of the orientational matrix p1,p2,p3 and strain
Potential derivatives are evaluated: analytically
Translation of the system is removed from the generalized Hessian: no
Rotation of the system is removed from the generalized Hessian: no
Maximum step-length: 0.3
Convergence factor: 1
Maximum number of minimization steps: 10000
Use gradients in the line-minimizations: yes
RMS gradient tolerance: 1e-06
Maximum gradient tolerance: 1e-06

Distance constraints: 0
Angle constraints: 0
Dihedral constraints: 0

Improper dihedral constraints: 0

Inversion-bend constraints: 0

Out-of-plane constraints: 0

Harmonic distance constraints: 0
Harmonic angle constraints: 0
Harmonic dihedral constraints: 0

Dihedral mid-point measurements: 0

All framework atoms are fixed

Fixed adsorbate atoms:  
Fixed adsorbate groups (center-of-mass):  
Fixed adsorbate groups (orientation):  

Fixed cation atoms:  
Fixed cation groups (center-of-mass):  
Fixed cation groups (orientation):  


dcTST parameters
===========================================================================
Free energy profiles computed: no
Free energy profiles written every 5000 cycles
Free energy mapping: mapped to a,b,c-coordinates
BarrierPosition:       0.0000000000       0.0000000000       0.0000000000
BarrierNormal:         0.0000000000       0.0000000000       0.0000000000
Start with a molecule on top of the barrier: no
Maximum distance to barrier (e.g. distance to minumum free energy):       0.0000000000 [A]
Maximum trajectory time:      10.0000000000 [ps]
Each configuration is used with 5 different initial velocities


Cbmc parameters
===========================================================================
Biasing method: using only the VDW part
Number of trial positions:                                       10
Number of trial positions (reinsertion):                         10
Number of trial positions (partial reinsertion):                 10
Number of trial positions (identity-change):                     10
Number of trial positions (Gibbs particle transfer):             10
Number of trial positions (insertion/deletion):                  10
Number of trial positions (Widom insertion):                     10
Number of trial positions coupled Torsion-selection:             100
Number of trial positions first bead:                            10
Number of trial positions first bead (reinsertion):              10
Number of trial positions first bead (partial reinsertion):      10
Number of trial positions first bead (identity-change):          10
Number of trial positions first bead (Gibbs particle transfer):  10
Number of trial positions first bead (insertion/deletion):       10
Number of trial positions first bead (Widom insertion):          10
Number of trial moves per open bead:                             150
Target acceptance ratio small-mc scheme:                         0.400000
Energy overlap criteria:                                         1e+07
Minimal Rosenbluth factor:                                       1e-150


Pseudo atoms: 8
===========================================================================
Pseudo Atom[   0] Name UNIT     Oxidation:          Element: H    pdb-name: H    Scat. Types:   1   1 Mass=1.000000000  B-factor:0.000   
                 Charge=1.000000000          Polarization=0.000000000  [A^3] (considered a charged atom and no polarization)  Interactions: yes
                 Anisotropic factor:    0.000 [-] (Absolute), Radius:    1.000 [A], Framework-atom:  no
Pseudo Atom[   1] Name O        Oxidation: +0       Element: O    pdb-name: O    Scat. Types:   9   8 Mass=15.999400000 B-factor:1.000   
                 Charge=nan                  Polarization=0.000000000  [A^3] (considered a charged atom and no polarization)  Interactions: yes
                 Anisotropic factor:    0.000 [-] (Absolute), Radius:    0.500 [A], Framework-atom: yes (charge from pseudo-atoms file)
Pseudo Atom[   2] Name Oa       Oxidation: +0       Element: O    pdb-name: Oa   Scat. Types:   9  -1 Mass=15.999400000 B-factor:1.000   
                 Charge=-0.413840000         Polarization=0.000000000  [A^3] (considered a charged atom and no polarization)  Interactions: yes
                 Anisotropic factor:    0.000 [-] (Absolute), Radius:    0.500 [A], Framework-atom:  no
Pseudo Atom[   3] Name Si       Oxidation: +0       Element: Si   pdb-name: Si   Scat. Types:  15  14 Mass=28.085500000 B-factor:1.000   
                 Charge=0.785980000          Polarization=0.000000000  [A^3] (considered a charged atom and no polarization)  Interactions: yes
                 Anisotropic factor:    0.000 [-] (Absolute), Radius:    1.180 [A], Framework-atom: yes (charge from pseudo-atoms file)
Pseudo Atom[   4] Name Al       Oxidation: +0       Element: Al   pdb-name: Al   Scat. Types:  14  13 Mass=26.981539000 B-factor:1.000   
                 Charge=0.485980000          Polarization=0.000000000  [A^3] (considered a charged atom and no polarization)  Interactions: yes
                 Anisotropic factor:    0.000 [-] (Absolute), Radius:    1.180 [A], Framework-atom: yes (charge from pseudo-atoms file)
Pseudo Atom[   5] Name C_co2    Oxidation: +0       Element: C    pdb-name: C    Scat. Types:   7   6 Mass=12.000000000 B-factor:1.000   
                 Charge=0.651200000          Polarization=0.000000000  [A^3] (considered a charged atom and no polarization)  Interactions: yes
                 Anisotropic factor:    0.000 [-] (Relative), Radius:    0.720 [A], Framework-atom:  no
Pseudo Atom[   6] Name O_co2    Oxidation: +0       Element: O    pdb-name: O    Scat. Types:   9   8 Mass=15.999400000 B-factor:1.000   
                 Charge=-0.325600000         Polarization=0.000000000  [A^3] (considered a charged atom and no polarization)  Interactions: yes
                 Anisotropic factor:    0.000 [-] (Relative), Radius:    0.680 [A], Framework-atom:  no
Pseudo Atom[   7] Name Na       Oxidation: +0       Element: Na   pdb-name: Na   Scat. Types:  12  11 Mass=22.989770000 B-factor:1.000   
                 Charge=0.383400000          Polarization=0.000000000  [A^3] (considered a charged atom and no polarization)  Interactions: yes
                 Anisotropic factor:    0.000 [-] (Absolute), Radius:    1.000 [A], Framework-atom:  no


Forcefield: Local
===========================================================================
Minimal distance: 1
CutOff VDW : 12.000000 (144.000000)
CutOff VDW switching on: 10.800000 (116.640000)
CutOff charge-charge : 12.000000 (144.000000)
CutOff charge-charge switching on: 7.800000 (60.840000)
CutOff charge-bonddipole : 12.000000 (144.000000)
CutOff charge-bondipole switching on: 8.400000 (70.560000)
CutOff bonddipole-bonddipole : 12.000000 (144.000000)
CutOff bonddipole-bondipole switching on: 9.000000 (81.000000)
Polarization is neglected
All potentials are shifted to zero at the Cutoff

General mixing rule: Lorentz-Berthelot mixing rules are used FIRST for cross terms
0 cross terms are overwritten using the individual mixing rules from the file 'force_field_mixing_rules.def'
and then 13 terms are overwritten using the specific interactions from the file 'force_field.def'

The force field and all the interactions:
      O -       O [ZERO_POTENTIAL]
      O -      Si [ZERO_POTENTIAL]
      O -      Al [ZERO_POTENTIAL]
      O -   C_co2 [LENNARD_JONES] p_0/k_B:  37.59500 [K], p_1: 3.51100 [A], shift/k_B:  -0.09427902 [K], tailcorrection: no
      O -   O_co2 [LENNARD_JONES] p_0/k_B:  78.98000 [K], p_1: 3.23700 [A], shift/k_B:  -0.12166859 [K], tailcorrection: no
      O -      Na [LENNARD_JONES] p_0/k_B:  23.00000 [K], p_1: 3.40000 [A], shift/k_B:  -0.04757175 [K], tailcorrection: no
     Oa -      Oa [ZERO_POTENTIAL]
     Oa -      Si [ZERO_POTENTIAL]
     Oa -      Al [ZERO_POTENTIAL]
     Oa -   C_co2 [LENNARD_JONES] p_0/k_B:  37.59500 [K], p_1: 3.51100 [A], shift/k_B:  -0.09427902 [K], tailcorrection: no
     Oa -   O_co2 [LENNARD_JONES] p_0/k_B:  78.98000 [K], p_1: 3.23700 [A], shift/k_B:  -0.12166859 [K], tailcorrection: no
     Oa -      Na [LENNARD_JONES] p_0/k_B:  23.00000 [K], p_1: 3.40000 [A], shift/k_B:  -0.04757175 [K], tailcorrection: no
     Si -      Si [ZERO_POTENTIAL]
     Si -      Al [ZERO_POTENTIAL]
     Si -   C_co2 [ZERO_POTENTIAL]
     Si -   O_co2 [ZERO_POTENTIAL]
     Si -      Na [ZERO_POTENTIAL]
     Al -      Al [ZERO_POTENTIAL]
     Al -   C_co2 [ZERO_POTENTIAL]
     Al -   O_co2 [ZERO_POTENTIAL]
     Al -      Na [ZERO_POTENTIAL]
  C_co2 -   C_co2 [LENNARD_JONES] p_0/k_B:  29.93300 [K], p_1: 2.74500 [A], shift/k_B:  -0.01715199 [K], tailcorrection: no
  C_co2 -   O_co2 [LENNARD_JONES] p_0/k_B:  50.63981 [K], p_1: 2.88100 [A], shift/k_B:  -0.03878296 [K], tailcorrection: no
  C_co2 -      Na [LENNARD_JONES] p_0/k_B: 362.29200 [K], p_1: 3.32000 [A], shift/k_B:  -0.64962832 [K], tailcorrection: no
  O_co2 -   O_co2 [LENNARD_JONES] p_0/k_B:  85.67100 [K], p_1: 3.01700 [A], shift/k_B:  -0.08652638 [K], tailcorrection: no
  O_co2 -      Na [LENNARD_JONES] p_0/k_B: 200.83100 [K], p_1: 2.75800 [A], shift/k_B:  -0.11838722 [K], tailcorrection: no
     Na -      Na [ZERO_POTENTIAL]


MoleculeDefinitions:
===========================================================================
Component 0 [sodium] (Cation molecule)

	MoleculeDefinitions: Local
	Component contains (at least some) atoms which are charged
	Component contains no atoms with point dipoles (polarization)
	Component has a net charge of 0.383400

	Ideal chain Rosenbluth weight: 1
	Ideal chain total energy: 0.000000

	Critical temparure [K]: 0.000000
	Critical pressure [Pa]: 0.000000
	Acentric factor [-]: 0.000000

	RXMC partition factor ln(q/V) [ln(A^(-3))]:       0.0000000000

	Fluid is a vapour

	MolFraction:           1.0000000000 [-]
	Compressibility:       0.0000000000 [-]

	Density of the bulk fluid phase:       0.0000000000 [kg/m^3]


	Amount of excess molecules:       0.0000000000 [-]

	Conversion factor molecules/unit cell -> mol/kg:       0.0733287107 [-]
	Conversion factor molecules/unit cell -> mg/g:       1.6858101943 [-]
	Conversion factor molecules/unit cell -> cm^3 STP/gr:       1.6435879441 [-]
	Conversion factor molecules/unit cell -> cm^3 STP/cm^3:       2.5139005377 [-]
	Conversion factor mol/kg -> cm^3 STP/gr:      22.4139757476 [-]
	Conversion factor mol/kg -> cm^3 STP/cm^3:      34.2826228955 [-]

	Partial pressure: -16605402.00000000000000 [Pa]
	                    -124540.51499999999942 [Torr]
	                       -166.05402000000001 [bar]
	                       -163.88257586972614 [atm]

	Fugacity coefficient:      -1.0000000000 [-]

	Partial fugacity:  16605402.00000000000000 [Pa]
	                     124540.51499999999942 [Torr]
	                        166.05402000000001 [bar]
	                        163.88257586972614 [atm]

	Molecule contains 1 number of atoms
		atom:    0  is of type:    7 [        Na] (group: 0)

	Molecule contains 0 chirality centers

	Molecule contains 1 number of groups

		group: 0 containing: 1 elements
		-------------------------------------------------
		the group is modelled as flexible, i.e. no constraints
		Mass: 22.989770 [a.u.]
		Mass: 2.578481 [kg/m^3]

		Rotational Degrees of freedom: 0
		Diagonalized inertia vector:       0.0000000000
		                                   0.0000000000
		                                   0.0000000000
		element: 0 atom: 0 [        Na] Charge:  0.383400 Anisotropy: 0.000000 Connectivity: 0 ()

		Dipole:           0.0000000000 [D]
		Quadrupole:       0.0000000000       0.0000000000       0.0000000000 [D Angstrom]
		Quadrupole tensor [D Angstrom]
				       0.0000000000       0.0000000000       0.0000000000
				       0.0000000000       0.0000000000       0.0000000000
				       0.0000000000       0.0000000000       0.0000000000

	Starting bead for growth               : 0

	Degrees of freedom                     : 0
	Translational degrees of freedom       : 0
	Rotational degrees of freedom          : 0
	Vibrational degrees of freedom         : 0
	Constraint degrees of freedom          : 0

	Number of atoms                        : 1

	Number of constraint bonds             : 0
	Number of constraint bends             : 0
	Number of constraint inversion bends   : 0
	Number of constraint torsions          : 0
	Number of constraint improper torsions : 0
	Number of constraint improper torsions : 0

	Number of bonds                        : 0
	Number of Urey-Bradleys                : 0
	Number of bends                        : 0
	Number of inversion bends              : 0
	Number of torsions                     : 0
	Number of improper torsions            : 0
	Number of improper torsions            : 0

	Number of bond/bond cross terms        : 0
	Number of bond/bend cross terms        : 0
	Number of bend/bend cross terms        : 0
	Number of stretch/torsion cross terms  : 0
	Number of bend/torsion cross terms     : 0

	Number of charges                      : 1
	Number of bond-dipoles                 : 0

	Number of intra Van der Waals                             : 0
	Number of intra charge-charge Coulomb                     : 0
	Number of intra charge-bonddipole Coulomb                 : 0
	Number of intra bonddipole-bonddipole Coulomb             : 0

	Number of excluded intra charge-charge Coulomb                     : 0
	Number of excluded intra charge-bonddipole Coulomb                 : 0
	Number of excluded intra bonddipole-bonddipole Coulomb             : 0

	Number of cbmc-config moves                               : 0

	Particle Moves:             
		ProbabilityTranslationMove:                  50.000000
			TranslationDirection:      XYZ
		Percentage of random translation moves:            50.000000
		Percentage of rotation moves:                      0.000000
		Percentage of random rotation moves:               0.000000
		Percentage of partial reinsertion moves:           0.000000
		Percentage of reinsertion moves:                   0.000000
		Percentage of reinsertion-in-place moves:          0.000000
		Percentage of reinsertion-in-plane moves:          0.000000
		Percentage of identity-change moves:               0.000000
		Percentage of swap (insert/delete) moves:          0.000000
		Percentage of CF swap lambda moves:                0.000000
		Percentage of CB/CFMC swap lambda moves:           0.000000
		Percentage of Widom insertion moves:               0.000000
		Percentage of CF-Widom insertion moves:            0.000000
		Percentage of Gibbs Widom insertion moves:         0.000000
		Percentage of surface-area moves:                  0.000000
		Percentage of Gibbs particle-transfer moves:       0.000000
		Percentage of Gibbs identity-change moves:         0.000000
		Percentage of CF Gibbs lambda-transfer moves:      0.000000
		Percentage of CB/CFMC Gibbs lambda-transfer moves: 0.000000
		Percentage of exchange frac./int. particle moves:  0.000000
		Percentage of fractional mol. to other box moves:  0.000000
		Percentage of lambda-change moves:                 0.000000
		Percentage of fractional to integer moves:         0.000000

	System Moves:
		Percentage of parallel-tempering moves:            0.000000
		Percentage of hyper-parallel-tempering moves:      0.000000
		Percentage of parallel-mol-fraction moves:         0.000000
			   Component A: 0 B: 1
		Percentage of chiral inversion moves:              0.000000
		Percentage of Hybrid-NVE moves:                    0.000000
		Percentage of Hybrid-NPH moves:                    0.000000
		Percentage of Hybrid-NPHPR moves:                  0.000000
		Percentage of volume-change moves:                 0.000000
		Percentage of box-shape-change moves:              0.000000
		Percentage of Gibbs volume-change moves:           0.000000
		Percentage of framework-change moves:              0.000000
		Percentage of framework-shift moves:               0.000000
		Percentage of reactive MC moves:                   0.000000

	Moves are restricted: No
	No biased sampling used for this component


	number of identity-config changes: 1
	--------------------------------------------
	nr fixed 1: 0 

	Number of pockets blocked in a unitcell: 0
		Pockets are NOT blocked for this component

Component 1 [CO2] (Adsorbate molecule)

	MoleculeDefinitions: Local
	Component contains (at least some) atoms which are charged
	Component contains no atoms with point dipoles (polarization)
	Component has a net charge of 0.000000

	Ideal chain Rosenbluth weight: 1
	Ideal chain total energy: 0.000000

	Critical temparure [K]: 304.128200
	Critical pressure [Pa]: 7377300.000000
	Acentric factor [-]: 0.223940

	RXMC partition factor ln(q/V) [ln(A^(-3))]:       0.0000000000

	Fluid is a vapour

	MolFraction:           1.0000000000 [-]
	Compressibility:       0.9994526642 [-]

	Density of the bulk fluid phase:       0.1776756990 [kg/m^3]

	Binary mixture EOS parameters:  (0): - (1): 0.000000

	Amount of excess molecules:       0.0000000000 [-]

	Conversion factor molecules/unit cell -> mol/kg:       0.0733287107 [-]
	Conversion factor molecules/unit cell -> mg/g:       3.2263752780 [-]
	Conversion factor molecules/unit cell -> cm^3 STP/gr:       1.6435879441 [-]
	Conversion factor molecules/unit cell -> cm^3 STP/cm^3:       2.5139005377 [-]
	Conversion factor mol/kg -> cm^3 STP/gr:      22.4139757476 [-]
	Conversion factor mol/kg -> cm^3 STP/cm^3:      34.2826228955 [-]

	Partial pressure:     10000.00000000000000 [Pa]
	                         75.00000000000000 [Torr]
	                          0.10000000000000 [bar]
	                          0.09869232667160 [atm]

	Fugacity coefficient:       0.9994528874 [-]

	Partial fugacity:      9994.52887411594384 [Pa]
	                         74.95896655586958 [Torr]
	                          0.09994528874116 [bar]
	                          0.09863833085730 [atm]

	Molecule contains 3 number of atoms
		atom:    0  is of type:    6 [     O_co2] (group: 0)
		atom:    1  is of type:    5 [     C_co2] (group: 0)
		atom:    2  is of type:    6 [     O_co2] (group: 0)

	Molecule contains 0 chirality centers

	Molecule contains 1 number of groups

		group: 0 containing: 3 elements
		-------------------------------------------------
		the group is rigid and linear
		Mass: 43.998800 [a.u.]
		Mass: 4.934807 [kg/m^3]

		Rotational Degrees of freedom: 2
		Diagonalized inertia vector:      42.2448477588
		                                  42.2448477588
		                                   0.0000000000
		number of atoms: 3
			element: 0 atom: 0 [     O_co2] Charge: -0.325600 Anisotropy: 0.000000 Position:  0.000000 -0.000000  1.149000 Connectivity: 1 (1 )
			element: 1 atom: 1 [     C_co2] Charge:  0.651200 Anisotropy: 0.000000 Position:  0.000000 -0.000000  0.000000 Connectivity: 2 (0 2 )
			element: 2 atom: 2 [     O_co2] Charge: -0.325600 Anisotropy: 0.000000 Position:  0.000000 -0.000000 -1.149000 Connectivity: 1 (1 )
		number of permanent dipoles: 0
		number of polarizabilities: 0

		Dipole:           0.0000000000 [D]
		Quadrupole:       2.0646942053       2.0646942053      -4.1293884107 [D Angstrom]
		Quadrupole tensor [D Angstrom]
				       2.0646942053       0.0000000000       0.0000000000
				       0.0000000000       2.0646942053       0.0000000000
				       0.0000000000       0.0000000000      -4.1293884107

	Starting bead for growth               : 0

	Degrees of freedom                     : 0
	Translational degrees of freedom       : 0
	Rotational degrees of freedom          : 0
	Vibrational degrees of freedom         : 0
	Constraint degrees of freedom          : 0

	Number of atoms                        : 3

	Number of constraint bonds             : 0
	Number of constraint bends             : 0
	Number of constraint inversion bends   : 0
	Number of constraint torsions          : 0
	Number of constraint improper torsions : 0
	Number of constraint improper torsions : 0

	Number of bonds                        : 2
	Number of Urey-Bradleys                : 0
	Number of bends                        : 0
	Number of inversion bends              : 0
	Number of torsions                     : 0
	Number of improper torsions            : 0
	Number of improper torsions            : 0

	Number of bond/bond cross terms        : 0
	Number of bond/bend cross terms        : 0
	Number of bend/bend cross terms        : 0
	Number of stretch/torsion cross terms  : 0
	Number of bend/torsion cross terms     : 0

	Number of charges                      : 3
	Number of bond-dipoles                 : 0

	Number of intra Van der Waals                             : 0
	Number of intra charge-charge Coulomb                     : 0
	Number of intra charge-bonddipole Coulomb                 : 0
	Number of intra bonddipole-bonddipole Coulomb             : 0

	Number of excluded intra charge-charge Coulomb                     : 3
	Number of excluded intra charge-bonddipole Coulomb                 : 0
	Number of excluded intra bonddipole-bonddipole Coulomb             : 0

	Number of cbmc-config moves                               : 0

	Particle Moves:             
		ProbabilityTranslationMove:                  33.333333
			TranslationDirection:      XYZ
		Percentage of random translation moves:            0.000000
		Percentage of rotation moves:                      0.000000
		Percentage of random rotation moves:               0.000000
		Percentage of partial reinsertion moves:           0.000000
		Percentage of reinsertion moves:                   33.333333
		Percentage of reinsertion-in-place moves:          0.000000
		Percentage of reinsertion-in-plane moves:          0.000000
		Percentage of identity-change moves:               0.000000
		Percentage of swap (insert/delete) moves:          33.333333
		Percentage of CF swap lambda moves:                0.000000
		Percentage of CB/CFMC swap lambda moves:           0.000000
		Percentage of Widom insertion moves:               0.000000
		Percentage of CF-Widom insertion moves:            0.000000
		Percentage of Gibbs Widom insertion moves:         0.000000
		Percentage of surface-area moves:                  0.000000
		Percentage of Gibbs particle-transfer moves:       0.000000
		Percentage of Gibbs identity-change moves:         0.000000
		Percentage of CF Gibbs lambda-transfer moves:      0.000000
		Percentage of CB/CFMC Gibbs lambda-transfer moves: 0.000000
		Percentage of exchange frac./int. particle moves:  0.000000
		Percentage of fractional mol. to other box moves:  0.000000
		Percentage of lambda-change moves:                 0.000000
		Percentage of fractional to integer moves:         0.000000

	System Moves:
		Percentage of parallel-tempering moves:            0.000000
		Percentage of hyper-parallel-tempering moves:      0.000000
		Percentage of parallel-mol-fraction moves:         0.000000
			   Component A: 0 B: 1
		Percentage of chiral inversion moves:              0.000000
		Percentage of Hybrid-NVE moves:                    0.000000
		Percentage of Hybrid-NPH moves:                    0.000000
		Percentage of Hybrid-NPHPR moves:                  0.000000
		Percentage of volume-change moves:                 0.000000
		Percentage of box-shape-change moves:              0.000000
		Percentage of Gibbs volume-change moves:           0.000000
		Percentage of framework-change moves:              0.000000
		Percentage of framework-shift moves:               0.000000
		Percentage of reactive MC moves:                   0.000000

	Moves are restricted: No
	No biased sampling used for this component

	Number of Bonds: 2
	--------------------------------------------
	Bond interaction 0: A=0 B=1 Type:RIGID_BOND
		r_0=1.1490000000       [A]
	Bond interaction 1: A=1 B=2 Type:RIGID_BOND
		r_0=1.1490000000       [A]


	number of identity-config changes: 1
	--------------------------------------------
	nr fixed 1: 0 

	Number of pockets blocked in a unitcell: 32
	Pockets are blocked for this component
	Block-pockets Filename: LTA.block
		Block center: 0.000000 0.000000 0.000000  distance: 4.000000
		Block center: 12.277500 0.000000 0.000000  distance: 4.000000
		Block center: 0.000000 12.277500 0.000000  distance: 4.000000
		Block center: 12.277500 12.277500 0.000000  distance: 4.000000
		Block center: 0.000000 0.000000 12.277500  distance: 4.000000
		Block center: 12.277500 0.000000 12.277500  distance: 4.000000
		Block center: 0.000000 12.277500 12.277500  distance: 4.000000
		Block center: 12.277500 12.277500 12.277500  distance: 4.000000
		Block center: 6.138750 0.000000 0.000000  distance: 1.000000
		Block center: 18.416250 0.000000 0.000000  distance: 1.000000
		Block center: 6.138750 12.277500 0.000000  distance: 1.000000
		Block center: 18.416250 12.277500 0.000000  distance: 1.000000
		Block center: 0.000000 6.138750 0.000000  distance: 1.000000
		Block center: 0.000000 18.416250 0.000000  distance: 1.000000
		Block center: 12.277500 6.138750 0.000000  distance: 1.000000
		Block center: 12.277500 18.416250 0.000000  distance: 1.000000
		Block center: 0.000000 0.000000 6.138750  distance: 1.000000
		Block center: 0.000000 0.000000 18.416250  distance: 1.000000
		Block center: 0.000000 12.277500 6.138750  distance: 1.000000
		Block center: 0.000000 12.277500 18.416250  distance: 1.000000
		Block center: 6.138750 0.000000 12.277500  distance: 1.000000
		Block center: 18.416250 0.000000 12.277500  distance: 1.000000
		Block center: 6.138750 12.277500 12.277500  distance: 1.000000
		Block center: 18.416250 12.277500 12.277500  distance: 1.000000
		Block center: 0.000000 6.138750 12.277500  distance: 1.000000
		Block center: 0.000000 18.416250 12.277500  distance: 1.000000
		Block center: 12.277500 6.138750 12.277500  distance: 1.000000
		Block center: 12.277500 18.416250 12.277500  distance: 1.000000
		Block center: 12.277500 0.000000 6.138750  distance: 1.000000
		Block center: 12.277500 0.000000 18.416250  distance: 1.000000
		Block center: 12.277500 12.277500 6.138750  distance: 1.000000
		Block center: 12.277500 12.277500 18.416250  distance: 1.000000



Framework Status
===========================================================================
Lowenstein's rule obeyed by framework
	Framework is modelled as: rigid

	Number of charges:                               576
	Number of bonddipoles:                           0


System Properties
===========================================================================
Unit cell size: 24.555000 24.555000 24.555000
Cell angles (radians)  alpha: 1.570796 beta: 1.570796 gamma: 1.570796
Cell angles (degrees)  alpha: 90.000000 beta: 90.000000 gamma: 90.000000
Number of unitcells [a]: 1
Number of unitcells [b]: 1
Number of unitcells [c]: 1

TRICLINIC Boundary conditions: alpha!=90 or beta!=90 or gamma!=90

Cartesian axis A is collinear with crystallographic axis a
Cartesian axis B is collinear with (axb)xA
Cartesian axis C is collinear with (axb)

lengths of cell vectors:
 24.55500  24.55500  24.55500
cosines of cell angles:
  0.00000   0.00000   0.00000
perpendicular cell widths:
 24.55500  24.55500  24.55500
volume of the cell: 14805.388753875000 (A^3)

Orthogonalization matrix Box
Transforms fractional coordinates abc into orthonormal Cartesian coordinates xyz
Deorthogonalization matrix InverseBox
Transforms orthonormal Cartesian coordinates xyz into fractional coordinates xyz

Box[0]:
	   24.555000000000     0.000000000000     0.000000000000
	    0.000000000000    24.555000000000     0.000000000000
	    0.000000000000     0.000000000000    24.555000000000

Inverse box[0]:
	    0.040724903278    -0.000000000000    -0.000000000000
	    0.000000000000     0.040724903278    -0.000000000000
	    0.000000000000     0.000000000000     0.040724903278


Unitcell box[0]:
	   24.555000000000     0.000000000000     0.000000000000
	    0.000000000000    24.555000000000     0.000000000000
	    0.000000000000     0.000000000000    24.555000000000

Unitcell inverse box[0]:
	    0.040724903278    -0.000000000000    -0.000000000000
	    0.000000000000     0.040724903278    -0.000000000000
	    0.000000000000     0.000000000000     0.040724903278

lengths of cell vectors (inverse box):
  0.04072   0.04072   0.04072
cosines of cell angles (inverse box):
 -0.00000  -0.00000  -0.00000
perpendicular cell widths (inverse):
  0.04072   0.04072   0.04072
volume of the cell: 14805.388753875000 (A^3)

No replicas are used
Framework is simulated as 'rigid'
Number of framework atoms: 576
Number of framework atoms in the unit cell: 576
Framework Mass: 13637.223264000064 [g/mol]
Framework Density:  1529.519942450558 [kg/m^3]    0.6537999095310 [cm^3/g]
Helium void fraction:    0.00000000
Available pore volume:    0.00000000 [A^3]    0.00000000 [cm^3/g]
Conversion factor from molecule/unit cell -> kmol/m^3: 0.112158, kmol/m^3 accesible pore volume: inf
The framework atom types are modified at reading the input, 1 rules
	rule 0: modify (O) to (Oa) when connected to (Al) and (wild card)

Number Of Frameworks (per system): 1
----------------------------------------------------------------------
Framework name: LTA4A
Citation:
	author name:        'J.J. Pluth and J.V. Smith'
	title:              'Accurate redetermination of crystal structure of dehydrated zeolite A. Absence of near zero coordination of sodium. Refinement of silicon,aluminum-ordered superstructure'
	journal abbrev.:    'J. Am. Chem. Soc.'
	journal volume:     102
	journal issue:      14
	first page:         4704
	last page:          4708
	year:               1980
Space group: 226
	Identifier: 524
	short international Hermann-Mauguin symbol: F m -3 c
	long international Hermann-Mauguin symbol: F 4/m -3 2/c
	Hall symbol: -F 4a 2 3
	Number of lattice translations: 4 [ (0,0,0) (0,0.5,0.5) (0.5,0,0.5) (0.5,0.5,0) ]
	acentric/centric: acentric
	chiral: yes
	enantiomorphic: no
	number of operators: 192
		'x,y,z'
		'-x,-y,z'
		'-x,y,-z'
		'x,-y,-z'
		'z,x,y'
		'z,-x,-y'
		'-z,-x,y'
		'-z,x,-y'
		'y,z,x'
		'-y,z,-x'
		'y,-z,-x'
		'-y,-z,x'
		'y+1/2,x+1/2,-z+1/2'
		'-y+1/2,-x+1/2,-z+1/2'
		'y+1/2,-x+1/2,z+1/2'
		'-y+1/2,x+1/2,z+1/2'
		'x+1/2,z+1/2,-y+1/2'
		'-x+1/2,z+1/2,y+1/2'
		'-x+1/2,-z+1/2,-y+1/2'
		'x+1/2,-z+1/2,y+1/2'
		'z+1/2,y+1/2,-x+1/2'
		'z+1/2,-y+1/2,x+1/2'
		'-z+1/2,y+1/2,x+1/2'
		'-z+1/2,-y+1/2,-x+1/2'
		'-x,-y,-z'
		'x,y,-z'
		'x,-y,z'
		'-x,y,z'
		'-z,-x,-y'
		'-z,x,y'
		'z,x,-y'
		'z,-x,y'
		'-y,-z,-x'
		'y,-z,x'
		'-y,z,x'
		'y,z,-x'
		'-y+1/2,-x+1/2,z+1/2'
		'y+1/2,x+1/2,z+1/2'
		'-y+1/2,x+1/2,-z+1/2'
		'y+1/2,-x+1/2,-z+1/2'
		'-x+1/2,-z+1/2,y+1/2'
		'x+1/2,-z+1/2,-y+1/2'
		'x+1/2,z+1/2,y+1/2'
		'-x+1/2,z+1/2,-y+1/2'
		'-z+1/2,-y+1/2,x+1/2'
		'-z+1/2,y+1/2,-x+1/2'
		'z+1/2,-y+1/2,-x+1/2'
		'z+1/2,y+1/2,x+1/2'
		'x,y+1/2,z+1/2'
		'-x,-y+1/2,z+1/2'
		'-x,y+1/2,-z+1/2'
		'x,-y+1/2,-z+1/2'
		'z,x+1/2,y+1/2'
		'z,-x+1/2,-y+1/2'
		'-z,-x+1/2,y+1/2'
		'-z,x+1/2,-y+1/2'
		'y,z+1/2,x+1/2'
		'-y,z+1/2,-x+1/2'
		'y,-z+1/2,-x+1/2'
		'-y,-z+1/2,x+1/2'
		'y+1/2,x,-z'
		'-y+1/2,-x,-z'
		'y+1/2,-x,z'
		'-y+1/2,x,z'
		'x+1/2,z,-y'
		'-x+1/2,z,y'
		'-x+1/2,-z,-y'
		'x+1/2,-z,y'
		'z+1/2,y,-x'
		'z+1/2,-y,x'
		'-z+1/2,y,x'
		'-z+1/2,-y,-x'
		'-x,-y+1/2,-z+1/2'
		'x,y+1/2,-z+1/2'
		'x,-y+1/2,z+1/2'
		'-x,y+1/2,z+1/2'
		'-z,-x+1/2,-y+1/2'
		'-z,x+1/2,y+1/2'
		'z,x+1/2,-y+1/2'
		'z,-x+1/2,y+1/2'
		'-y,-z+1/2,-x+1/2'
		'y,-z+1/2,x+1/2'
		'-y,z+1/2,x+1/2'
		'y,z+1/2,-x+1/2'
		'-y+1/2,-x,z'
		'y+1/2,x,z'
		'-y+1/2,x,-z'
		'y+1/2,-x,-z'
		'-x+1/2,-z,y'
		'x+1/2,-z,-y'
		'x+1/2,z,y'
		'-x+1/2,z,-y'
		'-z+1/2,-y,x'
		'-z+1/2,y,-x'
		'z+1/2,-y,-x'
		'z+1/2,y,x'
		'x+1/2,y,z+1/2'
		'-x+1/2,-y,z+1/2'
		'-x+1/2,y,-z+1/2'
		'x+1/2,-y,-z+1/2'
		'z+1/2,x,y+1/2'
		'z+1/2,-x,-y+1/2'
		'-z+1/2,-x,y+1/2'
		'-z+1/2,x,-y+1/2'
		'y+1/2,z,x+1/2'
		'-y+1/2,z,-x+1/2'
		'y+1/2,-z,-x+1/2'
		'-y+1/2,-z,x+1/2'
		'y,x+1/2,-z'
		'-y,-x+1/2,-z'
		'y,-x+1/2,z'
		'-y,x+1/2,z'
		'x,z+1/2,-y'
		'-x,z+1/2,y'
		'-x,-z+1/2,-y'
		'x,-z+1/2,y'
		'z,y+1/2,-x'
		'z,-y+1/2,x'
		'-z,y+1/2,x'
		'-z,-y+1/2,-x'
		'-x+1/2,-y,-z+1/2'
		'x+1/2,y,-z+1/2'
		'x+1/2,-y,z+1/2'
		'-x+1/2,y,z+1/2'
		'-z+1/2,-x,-y+1/2'
		'-z+1/2,x,y+1/2'
		'z+1/2,x,-y+1/2'
		'z+1/2,-x,y+1/2'
		'-y+1/2,-z,-x+1/2'
		'y+1/2,-z,x+1/2'
		'-y+1/2,z,x+1/2'
		'y+1/2,z,-x+1/2'
		'-y,-x+1/2,z'
		'y,x+1/2,z'
		'-y,x+1/2,-z'
		'y,-x+1/2,-z'
		'-x,-z+1/2,y'
		'x,-z+1/2,-y'
		'x,z+1/2,y'
		'-x,z+1/2,-y'
		'-z,-y+1/2,x'
		'-z,y+1/2,-x'
		'z,-y+1/2,-x'
		'z,y+1/2,x'
		'x+1/2,y+1/2,z'
		'-x+1/2,-y+1/2,z'
		'-x+1/2,y+1/2,-z'
		'x+1/2,-y+1/2,-z'
		'z+1/2,x+1/2,y'
		'z+1/2,-x+1/2,-y'
		'-z+1/2,-x+1/2,y'
		'-z+1/2,x+1/2,-y'
		'y+1/2,z+1/2,x'
		'-y+1/2,z+1/2,-x'
		'y+1/2,-z+1/2,-x'
		'-y+1/2,-z+1/2,x'
		'y,x,-z+1/2'
		'-y,-x,-z+1/2'
		'y,-x,z+1/2'
		'-y,x,z+1/2'
		'x,z,-y+1/2'
		'-x,z,y+1/2'
		'-x,-z,-y+1/2'
		'x,-z,y+1/2'
		'z,y,-x+1/2'
		'z,-y,x+1/2'
		'-z,y,x+1/2'
		'-z,-y,-x+1/2'
		'-x+1/2,-y+1/2,-z'
		'x+1/2,y+1/2,-z'
		'x+1/2,-y+1/2,z'
		'-x+1/2,y+1/2,z'
		'-z+1/2,-x+1/2,-y'
		'-z+1/2,x+1/2,y'
		'z+1/2,x+1/2,-y'
		'z+1/2,-x+1/2,y'
		'-y+1/2,-z+1/2,-x'
		'y+1/2,-z+1/2,x'
		'-y+1/2,z+1/2,x'
		'y+1/2,z+1/2,-x'
		'-y,-x,z+1/2'
		'y,x,z+1/2'
		'-y,x,-z+1/2'
		'y,-x,-z+1/2'
		'-x,-z,y+1/2'
		'x,-z,-y+1/2'
		'x,z,y+1/2'
		'-x,z,-y+1/2'
		'-z,-y,x+1/2'
		'-z,y,-x+1/2'
		'z,-y,-x+1/2'
		'z,y,x+1/2'
Framework is simulated as 'rigid'
Shift: 0.000000 0.000000 0.000000
Number of framework atoms: 576
Number of asymmetric atoms: 5
Number of free framework atoms: 0
Number of fixed framework atoms: 576
Number of framework atoms in the unit cell: 576
Framework Mass: 11430.205344000064 [g/mol]
Framework Density:  1281.985832563470 [kg/m^3]
Framework has net charge: -36.806400
         largest charge : 0.785980
         smallest charge: -0.413840

Using FULL Host-guest interaction calculation (for testing purposes)

Current Atom Status
===========================================================================
Number of framework atoms        : 576
Number of cations molecules      : 96
Number of adsorbate molecules    : 0
Component    0 :   96 molecules
Component    1 :    0 molecules
Pseudo Atoms    0 [    UNIT]:    0 atoms
Pseudo Atoms    1 [       O]:    0 atoms
Pseudo Atoms    2 [      Oa]:  384 atoms
Pseudo Atoms    3 [      Si]:   96 atoms
Pseudo Atoms    4 [      Al]:   96 atoms
Pseudo Atoms    5 [   C_co2]:    0 atoms
Pseudo Atoms    6 [   O_co2]:    0 atoms
Pseudo Atoms    7 [      Na]:   96 atoms


Current (initial full energy) Energy Status
===========================================================================

Internal energy:
Host stretch energy:                                            0.00000000
Host UreyBradley energy:                                        0.00000000
Host bend energy:                                               0.00000000
Host inversion-bend energy:                                     0.00000000
Host torsion energy:                                            0.00000000
Host improper torsion energy:                                   0.00000000
Host out-of-plane energy:                                       0.00000000
Host stretch/stretch energy:                                    0.00000000
Host bend/bend energy:                                          0.00000000
Host stretch/bend energy:                                       0.00000000
Host stretch/torsion energy:                                    0.00000000
Host bend/torsion energy:                                       0.00000000

Adsorbate stretch energy:                                       0.00000000
Adsorbate UreyBradley energy:                                   0.00000000
Adsorbate bend energy:                                          0.00000000
Adsorbate inversion-bend energy:                                0.00000000
Adsorbate torsion energy:                                       0.00000000
Adsorbate improper torsion energy:                              0.00000000
Adsorbate out-of-plane energy:                                  0.00000000
Adsorbate stretch/stretch energy:                               0.00000000
Adsorbate bend/bend energy:                                     0.00000000
Adsorbate stretch/bend energy:                                  0.00000000
Adsorbate stretch/torsion energy:                               0.00000000
Adsorbate bend/torsion energy:                                  0.00000000
Adsorbate intra VDW energy:                                     0.00000000
Adsorbate intra charge-charge Coulomb energy:                   0.00000000
Adsorbate intra charge-bonddipole Coulomb energy:               0.00000000
Adsorbate intra bonddipole-bonddipole Coulomb energy:           0.00000000

Cation stretch energy:                                          0.00000000
Cation UreyBradley energy:                                      0.00000000
Cation bend energy:                                             0.00000000
Cation inversion-bend energy:                                   0.00000000
Cation torsion energy:                                          0.00000000
Cation improper torsion energy:                                 0.00000000
Cation out-of-plane energy:                                     0.00000000
Cation stretch/stretch energy:                                  0.00000000
Cation bend/bend energy:                                        0.00000000
Cation stretch/bend energy:                                     0.00000000
Cation stretch/torsion energy:                                  0.00000000
Cation bend/torsion energy:                                     0.00000000
Cation intra VDW energy:                                        0.00000000
Cation intra charge-charge Coulomb energy:                      0.00000000
Cation intra charge-bonddipole Coulomb energy:                  0.00000000
Cation intra bonddipole-bonddipole Coulomb energy:              0.00000000

Host/Host energy:                                             0.00000000
	Host/Host VDW energy:                                         0.00000000
	Host/Host Coulomb energy:                                     0.00000000
	Host/Host charge-charge Real energy:                          0.00000000
	Host/Host charge-charge Fourier energy:                       0.00000000
	Host/Host charge-bonddipole Real energy:                      0.00000000
	Host/Host charge-bonddipole Fourier energy:                   0.00000000
	Host/Host bondipole-bonddipole Real energy:                   0.00000000
	Host/Host bondipole-bonddipole Fourier energy:                0.00000000

Host/Adsorbate energy:                                        0.00000000
	Host/Adsorbate VDW energy:                                    0.00000000
	Host/Adsorbate Coulomb energy:                                0.00000000
	Host/Adsorbate charge-charge Real energy:                     0.00000000
	Host/Adsorbate charge-charge Fourier energy:                  0.00000000
	Host/Adsorbate charge-bonddipole Real energy:                 0.00000000
	Host/Adsorbate charge-bonddipole Fourier energy:              0.00000000
	Host/Adsorbate bondipole-bonddipole Real energy:              0.00000000
	Host/Adsorbate bondipole-bonddipole Fourier energy:           0.00000000

Host/Cation energy:                                   -25670309.77402099
	Host/Cation VDW energy:                                   40297.38571987
	Host/Cation Coulomb energy:                           -25710607.15974086
	Host/Cation charge-charge Real energy:                  -354451.41684001
	Host/Cation charge-charge Fourier energy:             -25356155.74290084
	Host/Cation charge-bonddipole Real energy:                    0.00000000
	Host/Cation charge-bonddipole Fourier energy:                 0.00000000
	Host/Cation bondipole-bonddipole Real energy:                 0.00000000
	Host/Cation bondipole-bonddipole Fourier energy:              0.00000000

Adsorbate/Adsorbate energy:                                        0.00000000
	Adsorbate/Adsorbate VDW energy:                                    0.00000000
	Adsorbate/Adsorbate Coulomb energy:                                0.00000000
	Adsorbate/Adsorbate charge-charge Real energy:                     0.00000000
	Adsorbate/Adsorbate charge-charge Fourier energy:                  0.00000000
	Adsorbate/Adsorbate charge-bonddipole Real energy:                 0.00000000
	Adsorbate/Adsorbate charge-bonddipole Fourier energy:              0.00000000
	Adsorbate/Adsorbate bondipole-bonddipole Real energy:              0.00000000
	Adsorbate/Adsorbate bondipole-bonddipole Fourier energy:           0.00000000

Adsorbate/Cation energy:                                           0.00000000
	Adsorbate/Cation VDW energy:                                       0.00000000
	Adsorbate/Cation Coulomb energy:                                   0.00000000
	Adsorbate/Cation charge-charge Real energy:                        0.00000000
	Adsorbate/Cation charge-charge Fourier energy:                     0.00000000
	Adsorbate/Cation charge-bonddipole Real energy:                    0.00000000
	Adsorbate/Cation charge-bonddipole Fourier energy:                 0.00000000
	Adsorbate/Cation bondipole-bonddipole Real energy:                 0.00000000
	Adsorbate/Cation bondipole-bonddipole Fourier energy:              0.00000000

Cation/Cation energy:                                    13796518.78610694
	Cation/Cation VDW energy:                                       0.00000000
	Cation/Cation Coulomb energy:                            13796518.78610694
	Cation/Cation charge-charge Real energy:                   854668.49251174
	Cation/Cation charge-charge Fourier energy:              12941850.29359521
	Cation/Cation charge-bonddipole Real energy:                    0.00000000
	Cation/Cation charge-bonddipole Fourier energy:                 0.00000000
	Cation/Cation bondipole-bonddipole Real energy:                 0.00000000
	Cation/Cation bondipole-bonddipole Fourier energy:              0.00000000

Polarization energy:
	Host polarization energy:                                     0.00000000
	Adsorbate polarization energy:                                0.00000000
	Cation polarization energy:                                   0.00000000
	Host back-polarization energy:                                     0.00000000
	Adsorbate back-polarization energy:                                0.00000000
	Cation back-polarization energy:                                   0.00000000

Tail-correction energy:                                       0.00000000

Distance constraints energy:                                  0.00000000
Angle constraints energy:                                     0.00000000
Dihedral constraints energy:                                  0.00000000
Inversion-bend constraints energy:                            0.00000000
Out-of-plane distance constraints energy:                     0.00000000
Exclusion constraints energy:                                 0.00000000

===================================================================
Total energy: -11873790.987914046273
	Total Van der Waals: 40297.385720
	Total Coulomb: -11914088.373634

	Total Polarization: 0.000000







+++++++++++++++++++++++++++++++++++++++++++++++++++++++++++++++++++++++++
Starting simulation
+++++++++++++++++++++++++++++++++++++++++++++++++++++++++++++++++++++++++

[Init] Current cycle: 0 out of 10000
========================================================================================================

Net charge: 2.13163e-14 (F: -36.8064, A: 0, C: 36.8064)
Current Box:  24.55500   0.00000   0.00000 [A]
               0.00000  24.55500   0.00000 [A]
               0.00000   0.00000  24.55500 [A]
Box-lengths:  24.55500  24.55500  24.55500 Box-angles:   90.00000  90.00000  90.00000 [degrees]
Volume: 14805.38875 [A^3]

Loadings per component:
----------------------------------------------------------------------------------------------------------------------------------------------------
Component 0 (sodium), current number of integer/fractional/reaction molecules: 96/0/0, density: 247.53433 [kg/m^3]
	absolute adsorption:  96.00000 [mol/uc],         7.0396 [mol/kg],            161.8378 [mg/g]
	                                               157.7844 [cm^3 STP/g],        241.3345 [cm^3 STP/cm^3]
	excess adsorption:    96.00000 [mol/uc],         7.0396 [mol/kg],            161.8378 [mg/g]
	                                               157.7844 [cm^3 STP/g],        241.3345 [cm^3 STP/cm^3]
----------------------------------------------------------------------------------------------------------------------------------------------------
Component 1 (CO2), current number of integer/fractional/reaction molecules: 0/0/0, density:   0.00000 [kg/m^3]
	absolute adsorption:   0.00000 [mol/uc],         0.0000 [mol/kg],              0.0000 [mg/g]
	                                                 0.0000 [cm^3 STP/g],          0.0000 [cm^3 STP/cm^3]
	excess adsorption:     0.00000 [mol/uc],         0.0000 [mol/kg],              0.0000 [mg/g]
	                                                 0.0000 [cm^3 STP/g],          0.0000 [cm^3 STP/cm^3]
----------------------------------------------------------------------------------------------------------------------------------------------------
Degrees of freedom: 288 0 0 288
Number of Framework-atoms:    576
Number of Adsorbates:           0 (0 integer, 0 fractional, 0 reaction)
Number of Cations:             96 (96 integer, 0 fractional, 0 reaction

Current total potential energy:         -11873790.9879140463 [K]
	Current Host-Host energy:                     0.0000000000 [K]
	Current Host-Adsorbate energy:                0.0000000000 [K]
	Current Host-Cation energy:           -25670309.7740209922 [K]
	Current Adsorbate-Adsorbate energy:           0.0000000000 [K]
	Current Cation-Cation energy:          13796518.7861069441 [K]
	Current Adsorbate-Cation energy:              0.0000000000 [K]



[Init] Current cycle: 1000 out of 10000
========================================================================================================

Net charge: 2.13163e-14 (F: -36.8064, A: 0, C: 36.8064)
Current Box:  24.55500   0.00000   0.00000 [A]
               0.00000  24.55500   0.00000 [A]
               0.00000   0.00000  24.55500 [A]
Box-lengths:  24.55500  24.55500  24.55500 Box-angles:   90.00000  90.00000  90.00000 [degrees]
Volume: 14805.38875 [A^3]

Loadings per component:
----------------------------------------------------------------------------------------------------------------------------------------------------
Component 0 (sodium), current number of integer/fractional/reaction molecules: 96/0/0, density: 247.53433 [kg/m^3]
	absolute adsorption:  96.00000 [mol/uc],         7.0396 [mol/kg],            161.8378 [mg/g]
	                                               157.7844 [cm^3 STP/g],        241.3345 [cm^3 STP/cm^3]
	excess adsorption:    96.00000 [mol/uc],         7.0396 [mol/kg],            161.8378 [mg/g]
	                                               157.7844 [cm^3 STP/g],        241.3345 [cm^3 STP/cm^3]
----------------------------------------------------------------------------------------------------------------------------------------------------
Component 1 (CO2), current number of integer/fractional/reaction molecules: 32/0/0, density: 157.91391 [kg/m^3]
	absolute adsorption:  32.00000 [mol/uc],         2.3465 [mol/kg],            103.2440 [mg/g]
	                                                52.5948 [cm^3 STP/g],         80.4448 [cm^3 STP/cm^3]
	excess adsorption:    32.00000 [mol/uc],         2.3465 [mol/kg],            103.2440 [mg/g]
	                                                52.5948 [cm^3 STP/g],         80.4448 [cm^3 STP/cm^3]
----------------------------------------------------------------------------------------------------------------------------------------------------
Degrees of freedom: 448 0 160 288
Number of Framework-atoms:    576
Number of Adsorbates:          32 (32 integer, 0 fractional, 0 reaction)
Number of Cations:             96 (96 integer, 0 fractional, 0 reaction

Current total potential energy:         -13626153.1583801918 [K]
	Current Host-Host energy:                     0.0000000000 [K]
	Current Host-Adsorbate energy:           -28647.9528933752 [K]
	Current Host-Cation energy:           -26002009.2785259411 [K]
	Current Adsorbate-Adsorbate energy:       -9816.2340939262 [K]
	Current Cation-Cation energy:          12517832.5688049477 [K]
	Current Adsorbate-Cation energy:        -103512.2616719628 [K]



[Init] Current cycle: 2000 out of 10000
========================================================================================================

Net charge: 2.13163e-14 (F: -36.8064, A: 0, C: 36.8064)
Current Box:  24.55500   0.00000   0.00000 [A]
               0.00000  24.55500   0.00000 [A]
               0.00000   0.00000  24.55500 [A]
Box-lengths:  24.55500  24.55500  24.55500 Box-angles:   90.00000  90.00000  90.00000 [degrees]
Volume: 14805.38875 [A^3]

Loadings per component:
----------------------------------------------------------------------------------------------------------------------------------------------------
Component 0 (sodium), current number of integer/fractional/reaction molecules: 96/0/0, density: 247.53433 [kg/m^3]
	absolute adsorption:  96.00000 [mol/uc],         7.0396 [mol/kg],            161.8378 [mg/g]
	                                               157.7844 [cm^3 STP/g],        241.3345 [cm^3 STP/cm^3]
	excess adsorption:    96.00000 [mol/uc],         7.0396 [mol/kg],            161.8378 [mg/g]
	                                               157.7844 [cm^3 STP/g],        241.3345 [cm^3 STP/cm^3]
----------------------------------------------------------------------------------------------------------------------------------------------------
Component 1 (CO2), current number of integer/fractional/reaction molecules: 32/0/0, density: 157.91391 [kg/m^3]
	absolute adsorption:  32.00000 [mol/uc],         2.3465 [mol/kg],            103.2440 [mg/g]
	                                                52.5948 [cm^3 STP/g],         80.4448 [cm^3 STP/cm^3]
	excess adsorption:    32.00000 [mol/uc],         2.3465 [mol/kg],            103.2440 [mg/g]
	                                                52.5948 [cm^3 STP/g],         80.4448 [cm^3 STP/cm^3]
----------------------------------------------------------------------------------------------------------------------------------------------------
Degrees of freedom: 448 0 160 288
Number of Framework-atoms:    576
Number of Adsorbates:          32 (32 integer, 0 fractional, 0 reaction)
Number of Cations:             96 (96 integer, 0 fractional, 0 reaction

Current total potential energy:         -13641190.3821073584 [K]
	Current Host-Host energy:                     0.0000000000 [K]
	Current Host-Adsorbate energy:           -34411.1230792199 [K]
	Current Host-Cation energy:           -26000472.5926281363 [K]
	Current Adsorbate-Adsorbate energy:      -10904.9023354394 [K]
	Current Cation-Cation energy:          12510704.7440204173 [K]
	Current Adsorbate-Cation energy:        -106106.5080853299 [K]



[Init] Current cycle: 3000 out of 10000
========================================================================================================

Net charge: 2.13163e-14 (F: -36.8064, A: 0, C: 36.8064)
Current Box:  24.55500   0.00000   0.00000 [A]
               0.00000  24.55500   0.00000 [A]
               0.00000   0.00000  24.55500 [A]
Box-lengths:  24.55500  24.55500  24.55500 Box-angles:   90.00000  90.00000  90.00000 [degrees]
Volume: 14805.38875 [A^3]

Loadings per component:
----------------------------------------------------------------------------------------------------------------------------------------------------
Component 0 (sodium), current number of integer/fractional/reaction molecules: 96/0/0, density: 247.53433 [kg/m^3]
	absolute adsorption:  96.00000 [mol/uc],         7.0396 [mol/kg],            161.8378 [mg/g]
	                                               157.7844 [cm^3 STP/g],        241.3345 [cm^3 STP/cm^3]
	excess adsorption:    96.00000 [mol/uc],         7.0396 [mol/kg],            161.8378 [mg/g]
	                                               157.7844 [cm^3 STP/g],        241.3345 [cm^3 STP/cm^3]
----------------------------------------------------------------------------------------------------------------------------------------------------
Component 1 (CO2), current number of integer/fractional/reaction molecules: 34/0/0, density: 167.78353 [kg/m^3]
	absolute adsorption:  34.00000 [mol/uc],         2.4932 [mol/kg],            109.6968 [mg/g]
	                                                55.8820 [cm^3 STP/g],         85.4726 [cm^3 STP/cm^3]
	excess adsorption:    34.00000 [mol/uc],         2.4932 [mol/kg],            109.6968 [mg/g]
	                                                55.8820 [cm^3 STP/g],         85.4726 [cm^3 STP/cm^3]
----------------------------------------------------------------------------------------------------------------------------------------------------
Degrees of freedom: 458 0 170 288
Number of Framework-atoms:    576
Number of Adsorbates:          34 (34 integer, 0 fractional, 0 reaction)
Number of Cations:             96 (96 integer, 0 fractional, 0 reaction

Current total potential energy:         -13644143.7377725877 [K]
	Current Host-Host energy:                     0.0000000000 [K]
	Current Host-Adsorbate energy:           -36836.1299012831 [K]
	Current Host-Cation energy:           -25994989.3482987583 [K]
	Current Adsorbate-Adsorbate energy:      -10647.0772007446 [K]
	Current Cation-Cation energy:          12514296.7819624618 [K]
	Current Adsorbate-Cation energy:        -115967.9643346857 [K]



[Init] Current cycle: 4000 out of 10000
========================================================================================================

Net charge: 2.13163e-14 (F: -36.8064, A: 0, C: 36.8064)
Current Box:  24.55500   0.00000   0.00000 [A]
               0.00000  24.55500   0.00000 [A]
               0.00000   0.00000  24.55500 [A]
Box-lengths:  24.55500  24.55500  24.55500 Box-angles:   90.00000  90.00000  90.00000 [degrees]
Volume: 14805.38875 [A^3]

Loadings per component:
----------------------------------------------------------------------------------------------------------------------------------------------------
Component 0 (sodium), current number of integer/fractional/reaction molecules: 96/0/0, density: 247.53433 [kg/m^3]
	absolute adsorption:  96.00000 [mol/uc],         7.0396 [mol/kg],            161.8378 [mg/g]
	                                               157.7844 [cm^3 STP/g],        241.3345 [cm^3 STP/cm^3]
	excess adsorption:    96.00000 [mol/uc],         7.0396 [mol/kg],            161.8378 [mg/g]
	                                               157.7844 [cm^3 STP/g],        241.3345 [cm^3 STP/cm^3]
----------------------------------------------------------------------------------------------------------------------------------------------------
Component 1 (CO2), current number of integer/fractional/reaction molecules: 34/0/0, density: 167.78353 [kg/m^3]
	absolute adsorption:  34.00000 [mol/uc],         2.4932 [mol/kg],            109.6968 [mg/g]
	                                                55.8820 [cm^3 STP/g],         85.4726 [cm^3 STP/cm^3]
	excess adsorption:    34.00000 [mol/uc],         2.4932 [mol/kg],            109.6968 [mg/g]
	                                                55.8820 [cm^3 STP/g],         85.4726 [cm^3 STP/cm^3]
----------------------------------------------------------------------------------------------------------------------------------------------------
Degrees of freedom: 458 0 170 288
Number of Framework-atoms:    576
Number of Adsorbates:          34 (34 integer, 0 fractional, 0 reaction)
Number of Cations:             96 (96 integer, 0 fractional, 0 reaction

Current total potential energy:         -13646118.1069941893 [K]
	Current Host-Host energy:                     0.0000000000 [K]
	Current Host-Adsorbate energy:           -37775.7885258259 [K]
	Current Host-Cation energy:           -25992663.0288337208 [K]
	Current Adsorbate-Adsorbate energy:      -10899.2137801081 [K]
	Current Cation-Cation energy:          12509959.2552806623 [K]
	Current Adsorbate-Cation energy:        -114739.3311356731 [K]



[Init] Current cycle: 5000 out of 10000
========================================================================================================

Net charge: 2.13163e-14 (F: -36.8064, A: 0, C: 36.8064)
Current Box:  24.55500   0.00000   0.00000 [A]
               0.00000  24.55500   0.00000 [A]
               0.00000   0.00000  24.55500 [A]
Box-lengths:  24.55500  24.55500  24.55500 Box-angles:   90.00000  90.00000  90.00000 [degrees]
Volume: 14805.38875 [A^3]

Loadings per component:
----------------------------------------------------------------------------------------------------------------------------------------------------
Component 0 (sodium), current number of integer/fractional/reaction molecules: 96/0/0, density: 247.53433 [kg/m^3]
	absolute adsorption:  96.00000 [mol/uc],         7.0396 [mol/kg],            161.8378 [mg/g]
	                                               157.7844 [cm^3 STP/g],        241.3345 [cm^3 STP/cm^3]
	excess adsorption:    96.00000 [mol/uc],         7.0396 [mol/kg],            161.8378 [mg/g]
	                                               157.7844 [cm^3 STP/g],        241.3345 [cm^3 STP/cm^3]
----------------------------------------------------------------------------------------------------------------------------------------------------
Component 1 (CO2), current number of integer/fractional/reaction molecules: 32/0/0, density: 157.91391 [kg/m^3]
	absolute adsorption:  32.00000 [mol/uc],         2.3465 [mol/kg],            103.2440 [mg/g]
	                                                52.5948 [cm^3 STP/g],         80.4448 [cm^3 STP/cm^3]
	excess adsorption:    32.00000 [mol/uc],         2.3465 [mol/kg],            103.2440 [mg/g]
	                                                52.5948 [cm^3 STP/g],         80.4448 [cm^3 STP/cm^3]
----------------------------------------------------------------------------------------------------------------------------------------------------
Degrees of freedom: 448 0 160 288
Number of Framework-atoms:    576
Number of Adsorbates:          32 (32 integer, 0 fractional, 0 reaction)
Number of Cations:             96 (96 integer, 0 fractional, 0 reaction

Current total potential energy:         -13642510.6406092104 [K]
	Current Host-Host energy:                     0.0000000000 [K]
	Current Host-Adsorbate energy:           -33943.0748073511 [K]
	Current Host-Cation energy:           -25999501.5590157248 [K]
	Current Adsorbate-Adsorbate energy:       -8937.2281777238 [K]
	Current Cation-Cation energy:          12514188.5074216928 [K]
	Current Adsorbate-Cation energy:        -114317.2860309850 [K]



[Init] Current cycle: 6000 out of 10000
========================================================================================================

Net charge: 2.13163e-14 (F: -36.8064, A: 0, C: 36.8064)
Current Box:  24.55500   0.00000   0.00000 [A]
               0.00000  24.55500   0.00000 [A]
               0.00000   0.00000  24.55500 [A]
Box-lengths:  24.55500  24.55500  24.55500 Box-angles:   90.00000  90.00000  90.00000 [degrees]
Volume: 14805.38875 [A^3]

Loadings per component:
----------------------------------------------------------------------------------------------------------------------------------------------------
Component 0 (sodium), current number of integer/fractional/reaction molecules: 96/0/0, density: 247.53433 [kg/m^3]
	absolute adsorption:  96.00000 [mol/uc],         7.0396 [mol/kg],            161.8378 [mg/g]
	                                               157.7844 [cm^3 STP/g],        241.3345 [cm^3 STP/cm^3]
	excess adsorption:    96.00000 [mol/uc],         7.0396 [mol/kg],            161.8378 [mg/g]
	                                               157.7844 [cm^3 STP/g],        241.3345 [cm^3 STP/cm^3]
----------------------------------------------------------------------------------------------------------------------------------------------------
Component 1 (CO2), current number of integer/fractional/reaction molecules: 31/0/0, density: 152.97910 [kg/m^3]
	absolute adsorption:  31.00000 [mol/uc],         2.2732 [mol/kg],            100.0176 [mg/g]
	                                                50.9512 [cm^3 STP/g],         77.9309 [cm^3 STP/cm^3]
	excess adsorption:    31.00000 [mol/uc],         2.2732 [mol/kg],            100.0176 [mg/g]
	                                                50.9512 [cm^3 STP/g],         77.9309 [cm^3 STP/cm^3]
----------------------------------------------------------------------------------------------------------------------------------------------------
Degrees of freedom: 443 0 155 288
Number of Framework-atoms:    576
Number of Adsorbates:          31 (31 integer, 0 fractional, 0 reaction)
Number of Cations:             96 (96 integer, 0 fractional, 0 reaction

Current total potential energy:         -13632504.0918216128 [K]
	Current Host-Host energy:                     0.0000000000 [K]
	Current Host-Adsorbate energy:           -32906.3081318180 [K]
	Current Host-Cation energy:           -25997359.3146940172 [K]
	Current Adsorbate-Adsorbate energy:       -7813.1223702594 [K]
	Current Cation-Cation energy:          12510546.7893233951 [K]
	Current Adsorbate-Cation energy:        -104972.1359501281 [K]



[Init] Current cycle: 7000 out of 10000
========================================================================================================

Net charge: 2.13163e-14 (F: -36.8064, A: 0, C: 36.8064)
Current Box:  24.55500   0.00000   0.00000 [A]
               0.00000  24.55500   0.00000 [A]
               0.00000   0.00000  24.55500 [A]
Box-lengths:  24.55500  24.55500  24.55500 Box-angles:   90.00000  90.00000  90.00000 [degrees]
Volume: 14805.38875 [A^3]

Loadings per component:
----------------------------------------------------------------------------------------------------------------------------------------------------
Component 0 (sodium), current number of integer/fractional/reaction molecules: 96/0/0, density: 247.53433 [kg/m^3]
	absolute adsorption:  96.00000 [mol/uc],         7.0396 [mol/kg],            161.8378 [mg/g]
	                                               157.7844 [cm^3 STP/g],        241.3345 [cm^3 STP/cm^3]
	excess adsorption:    96.00000 [mol/uc],         7.0396 [mol/kg],            161.8378 [mg/g]
	                                               157.7844 [cm^3 STP/g],        241.3345 [cm^3 STP/cm^3]
----------------------------------------------------------------------------------------------------------------------------------------------------
Component 1 (CO2), current number of integer/fractional/reaction molecules: 33/0/0, density: 162.84872 [kg/m^3]
	absolute adsorption:  33.00000 [mol/uc],         2.4198 [mol/kg],            106.4704 [mg/g]
	                                                54.2384 [cm^3 STP/g],         82.9587 [cm^3 STP/cm^3]
	excess adsorption:    33.00000 [mol/uc],         2.4198 [mol/kg],            106.4704 [mg/g]
	                                                54.2384 [cm^3 STP/g],         82.9587 [cm^3 STP/cm^3]
----------------------------------------------------------------------------------------------------------------------------------------------------
Degrees of freedom: 453 0 165 288
Number of Framework-atoms:    576
Number of Adsorbates:          33 (33 integer, 0 fractional, 0 reaction)
Number of Cations:             96 (96 integer, 0 fractional, 0 reaction

Current total potential energy:         -13647560.0164798927 [K]
	Current Host-Host energy:                     0.0000000000 [K]
	Current Host-Adsorbate energy:           -34920.1803398400 [K]
	Current Host-Cation energy:           -26001757.5941030271 [K]
	Current Adsorbate-Adsorbate energy:       -9834.6834065454 [K]
	Current Cation-Cation energy:          12512200.8332353160 [K]
	Current Adsorbate-Cation energy:        -113248.3918670903 [K]



[Init] Current cycle: 8000 out of 10000
========================================================================================================

Net charge: 2.13163e-14 (F: -36.8064, A: 0, C: 36.8064)
Current Box:  24.55500   0.00000   0.00000 [A]
               0.00000  24.55500   0.00000 [A]
               0.00000   0.00000  24.55500 [A]
Box-lengths:  24.55500  24.55500  24.55500 Box-angles:   90.00000  90.00000  90.00000 [degrees]
Volume: 14805.38875 [A^3]

Loadings per component:
----------------------------------------------------------------------------------------------------------------------------------------------------
Component 0 (sodium), current number of integer/fractional/reaction molecules: 96/0/0, density: 247.53433 [kg/m^3]
	absolute adsorption:  96.00000 [mol/uc],         7.0396 [mol/kg],            161.8378 [mg/g]
	                                               157.7844 [cm^3 STP/g],        241.3345 [cm^3 STP/cm^3]
	excess adsorption:    96.00000 [mol/uc],         7.0396 [mol/kg],            161.8378 [mg/g]
	                                               157.7844 [cm^3 STP/g],        241.3345 [cm^3 STP/cm^3]
----------------------------------------------------------------------------------------------------------------------------------------------------
Component 1 (CO2), current number of integer/fractional/reaction molecules: 38/0/0, density: 187.52277 [kg/m^3]
	absolute adsorption:  38.00000 [mol/uc],         2.7865 [mol/kg],            122.6023 [mg/g]
	                                                62.4563 [cm^3 STP/g],         95.5282 [cm^3 STP/cm^3]
	excess adsorption:    38.00000 [mol/uc],         2.7865 [mol/kg],            122.6023 [mg/g]
	                                                62.4563 [cm^3 STP/g],         95.5282 [cm^3 STP/cm^3]
----------------------------------------------------------------------------------------------------------------------------------------------------
Degrees of freedom: 478 0 190 288
Number of Framework-atoms:    576
Number of Adsorbates:          38 (38 integer, 0 fractional, 0 reaction)
Number of Cations:             96 (96 integer, 0 fractional, 0 reaction

Current total potential energy:         -13664879.8318680245 [K]
	Current Host-Host energy:                     0.0000000000 [K]
	Current Host-Adsorbate energy:           -36332.9982327149 [K]
	Current Host-Cation energy:           -26002087.7012061439 [K]
	Current Adsorbate-Adsorbate energy:      -12190.7711739992 [K]
	Current Cation-Cation energy:          12509321.0624014381 [K]
	Current Adsorbate-Cation energy:        -123589.4236584238 [K]



[Init] Current cycle: 9000 out of 10000
========================================================================================================

Net charge: 2.13163e-14 (F: -36.8064, A: 0, C: 36.8064)
Current Box:  24.55500   0.00000   0.00000 [A]
               0.00000  24.55500   0.00000 [A]
               0.00000   0.00000  24.55500 [A]
Box-lengths:  24.55500  24.55500  24.55500 Box-angles:   90.00000  90.00000  90.00000 [degrees]
Volume: 14805.38875 [A^3]

Loadings per component:
----------------------------------------------------------------------------------------------------------------------------------------------------
Component 0 (sodium), current number of integer/fractional/reaction molecules: 96/0/0, density: 247.53433 [kg/m^3]
	absolute adsorption:  96.00000 [mol/uc],         7.0396 [mol/kg],            161.8378 [mg/g]
	                                               157.7844 [cm^3 STP/g],        241.3345 [cm^3 STP/cm^3]
	excess adsorption:    96.00000 [mol/uc],         7.0396 [mol/kg],            161.8378 [mg/g]
	                                               157.7844 [cm^3 STP/g],        241.3345 [cm^3 STP/cm^3]
----------------------------------------------------------------------------------------------------------------------------------------------------
Component 1 (CO2), current number of integer/fractional/reaction molecules: 38/0/0, density: 187.52277 [kg/m^3]
	absolute adsorption:  38.00000 [mol/uc],         2.7865 [mol/kg],            122.6023 [mg/g]
	                                                62.4563 [cm^3 STP/g],         95.5282 [cm^3 STP/cm^3]
	excess adsorption:    38.00000 [mol/uc],         2.7865 [mol/kg],            122.6023 [mg/g]
	                                                62.4563 [cm^3 STP/g],         95.5282 [cm^3 STP/cm^3]
----------------------------------------------------------------------------------------------------------------------------------------------------
Degrees of freedom: 478 0 190 288
Number of Framework-atoms:    576
Number of Adsorbates:          38 (38 integer, 0 fractional, 0 reaction)
Number of Cations:             96 (96 integer, 0 fractional, 0 reaction

Current total potential energy:         -13670481.0425997023 [K]
	Current Host-Host energy:                     0.0000000000 [K]
	Current Host-Adsorbate energy:           -40018.9950943130 [K]
	Current Host-Cation energy:           -25999475.4680907577 [K]
	Current Adsorbate-Adsorbate energy:      -13840.7418432455 [K]
	Current Cation-Cation energy:          12512002.0106444340 [K]
	Current Adsorbate-Cation energy:        -129147.8482176979 [K]



Average Properties at Current cycle: 0 out of 25000
========================================================================================

Framework surface area:       0.0000000000 [m^2/g]        0.0000000000 [m^2/cm^3]       0.0000000000 [A^2]
	Framework 0 individual surface area:       0.0000000000 [m^2/g]        0.0000000000 [m^2/cm^3]       0.0000000000 [A^2]
	Cation surface area:                       0.0000000000 [m^2/g]        0.0000000000 [m^2/cm^3]       0.0000000000 [A^2]
Compressibility:       0.0000000000 [-]
Henry coefficients
	Component 0: 0 [mol/kg/Pa] (Rosenbluth factor new: 0 [-])
	Component 1: 0 [mol/kg/Pa] (Rosenbluth factor new: 0 [-])
Energy <U_gh>_1-<U_h>_0 from Widom


Current cycle: 0 out of 25000
========================================================================================================

Net charge: 2.13163e-14 (F: -36.8064, A: 0, C: 36.8064)
Current Box:  24.55500   0.00000   0.00000 [A]   Average Box:  24.55500   0.00000   0.00000 [A]
               0.00000  24.55500   0.00000 [A]                  0.00000  24.55500   0.00000 [A]
               0.00000   0.00000  24.55500 [A]                  0.00000   0.00000  24.55500 [A]
Box-lengths:   24.55500  24.55500  24.55500 [A] Average:  24.55500  24.55500  24.55500 [A]
Box-angles:   90.00000  90.00000  90.00000 [degrees] Average:  90.00000  90.00000  90.00000 [degrees]
Volume: 14805.38875 [A^3] Average Volume: 14805.38875 [A^3]

Loadings per component:
----------------------------------------------------------------------------------------------------------------------------------------------------
Component 0 (sodium), current number of integer/fractional/reaction molecules: 96/0/0 (avg.  96.00000), density: 247.53433 (avg. 247.53433) [kg/m^3]
	absolute adsorption:  96.00000 (avg.  96.00000) [mol/uc],   7.0395562309 (avg.   7.0395562309) [mol/kg], 161.8377786500 (avg. 161.8377786500) [mg/g]
	                     157.7844426328 (avg. 157.7844426328) [cm^3 STP/g],  241.3344516153 (avg. 241.3344516153) [cm^3 STP/cm^3]
	excess adsorption:    96.0000000000 (avg.  96.0000000000) [mol/uc],   7.0395562309 (avg.   7.0395562309) [mol/kg], 161.8377786500 (avg. 161.8377786500) [mg/g]
	                     157.7844426328 (avg. 157.7844426328) [cm^3 STP/g],  241.3344516153 (avg. 241.3344516153) [cm^3 STP/cm^3]
Component 1 (CO2), current number of integer/fractional/reaction molecules: 34/0/0 (avg.  34.00000), density: 167.78353 (avg. 167.78353) [kg/m^3]
	absolute adsorption:  34.00000 (avg.  34.00000) [mol/uc],   2.4931761651 (avg.   2.4931761651) [mol/kg], 109.6967594532 (avg. 109.6967594532) [mg/g]
	                      55.8819900991 (avg.  55.8819900991) [cm^3 STP/g],   85.4726182804 (avg.  85.4726182804) [cm^3 STP/cm^3]
	excess adsorption:    34.0000000000 (avg.  34.0000000000) [mol/uc],   2.4931761651 (avg.   2.4931761651) [mol/kg], 109.6967594532 (avg. 109.6967594532) [mg/g]
	                      55.8819900991 (avg.  55.8819900991) [cm^3 STP/g],   85.4726182804 (avg.  85.4726182804) [cm^3 STP/cm^3]
----------------------------------------------------------------------------------------------------------------------------------------------------
Degrees of freedom: 458 0 170 288
Number of Framework-atoms:    576
Number of Adsorbates:          34 (34 integer, 0 fractional, 0 reaction)
Number of Cations:             96 (96 integer, 0 fractional, 0 reaction)

Current total potential energy:         -13651159.0577316526 [K]  (avg.   -13651159.0577316526)
	Current Host-Host energy:                     0.0000000000 [K]  (avg.           0.0000000000)
	Current Host-Adsorbate energy:           -34919.8247331082 [K]  (avg.      -34919.8247331082)
	Current Host-Cation energy:           -26003362.4562868215 [K]  (avg.   -26003362.4562868215)
	Current Adsorbate-Adsorbate energy:      -11987.5786124464 [K]  (avg.      -11987.5786124464)
	Current Cation-Cation energy:          12511937.4171233028 [K]  (avg.    12511937.4171233028)
	Current Adsorbate-Cation energy:        -112826.6152225805 [K]  (avg.     -112826.6152225805)



Current cycle: 1000 out of 25000
========================================================================================================

Net charge: 2.13163e-14 (F: -36.8064, A: 0, C: 36.8064)
Current Box:  24.55500   0.00000   0.00000 [A]   Average Box:  24.55500   0.00000   0.00000 [A]
               0.00000  24.55500   0.00000 [A]                  0.00000  24.55500   0.00000 [A]
[...]
	Block[ 0]            0.00000 [K]
	Block[ 1]            0.00000 [K]
	Block[ 2]            0.00000 [K]
	Block[ 3]            0.00000 [K]
	Block[ 4]            0.00000 [K]
	------------------------------------------------------------------------------
	Average              0.00000 [K] +/-            0.00000 [K]

Average Cation Intra charge-bonddipole Coulomb energy:
====================================
	Block[ 0]            0.00000 [K]
	Block[ 1]            0.00000 [K]
	Block[ 2]            0.00000 [K]
	Block[ 3]            0.00000 [K]
	Block[ 4]            0.00000 [K]
	------------------------------------------------------------------------------
	Average              0.00000 [K] +/-            0.00000 [K]

Average Cation Intra bonddipole-bonddipole Coulomb energy:
====================================
	Block[ 0]            0.00000 [K]
	Block[ 1]            0.00000 [K]
	Block[ 2]            0.00000 [K]
	Block[ 3]            0.00000 [K]
	Block[ 4]            0.00000 [K]
	------------------------------------------------------------------------------
	Average              0.00000 [K] +/-            0.00000 [K]

Average Host-Host energy:
=========================
	Block[ 0] 0.00000            Van der Waals: 0.00000            Coulomb: 0.00000            [K]
	Block[ 1] 0.00000            Van der Waals: 0.00000            Coulomb: 0.00000            [K]
	Block[ 2] 0.00000            Van der Waals: 0.00000            Coulomb: 0.00000            [K]
	Block[ 3] 0.00000            Van der Waals: 0.00000            Coulomb: 0.00000            [K]
	Block[ 4] 0.00000            Van der Waals: 0.00000            Coulomb: 0.00000            [K]
	------------------------------------------------------------------------------
	Average   0.00000            Van der Waals: 0.000000           Coulomb: 0.00000            [K]
	      +/- 0.00000                       +/- 0.000000                +/- 0.00000            [K]

Average Adsorbate-Adsorbate energy:
===================================
	Block[ 0] -10901.13192       Van der Waals: -9503.15752        Coulomb: -1397.97440        [K]
	Block[ 1] -10907.63117       Van der Waals: -9684.17810        Coulomb: -1223.45307        [K]
	Block[ 2] -12003.57643       Van der Waals: -10285.49608       Coulomb: -1718.08034        [K]
	Block[ 3] -14553.01206       Van der Waals: -11749.42125       Coulomb: -2803.59081        [K]
	Block[ 4] -11697.92682       Van der Waals: -10183.34963       Coulomb: -1514.57719        [K]
	------------------------------------------------------------------------------
	Average   -12012.65568       Van der Waals: -10281.120517      Coulomb: -1731.53516        [K]
	      +/- 1863.13980                    +/- 1097.670557             +/- 776.77552          [K]

Average Cation-Cation energy:
=============================
	Block[ 0] 12513784.46644     Van der Waals: 0.00000            Coulomb: 12513784.46644     [K]
	Block[ 1] 12512890.54941     Van der Waals: 0.00000            Coulomb: 12512890.54941     [K]
	Block[ 2] 12513030.49390     Van der Waals: 0.00000            Coulomb: 12513030.49390     [K]
	Block[ 3] 12511883.77390     Van der Waals: 0.00000            Coulomb: 12511883.77390     [K]
	Block[ 4] 12513037.56450     Van der Waals: 0.00000            Coulomb: 12513037.56450     [K]
	------------------------------------------------------------------------------
	Average   12512925.36963     Van der Waals: 0.000000           Coulomb: 12512925.36963     [K]
	      +/- 843.78992                     +/- 0.000000                +/- 843.78992          [K]

Average Host-Adsorbate energy:
==============================
	Block[ 0] -38082.74663       Van der Waals: -53885.71057       Coulomb: 15802.96394        [K]
	Block[ 1] -36609.51606       Van der Waals: -54404.98883       Coulomb: 17795.47277        [K]
	Block[ 2] -40449.06174       Van der Waals: -56037.08492       Coulomb: 15588.02319        [K]
	Block[ 3] -41213.73255       Van der Waals: -59459.08511       Coulomb: 18245.35257        [K]
	Block[ 4] -39754.49392       Van der Waals: -55702.88655       Coulomb: 15948.39263        [K]
	------------------------------------------------------------------------------
	Average   -39221.91018       Van der Waals: -55897.951197      Coulomb: 16676.04102        [K]
	      +/- 2312.52625                    +/- 2706.929694             +/- 1544.53716         [K]

Average Host-Cation energy:
===========================
	Block[ 0] -25999772.42021    Van der Waals: 54979.58144        Coulomb: -26054752.00166    [K]
	Block[ 1] -25999558.92671    Van der Waals: 54749.79066        Coulomb: -26054308.71737    [K]
	Block[ 2] -25997969.03767    Van der Waals: 55158.18197        Coulomb: -26053127.21964    [K]
	Block[ 3] -26000714.08532    Van der Waals: 55283.28932        Coulomb: -26055997.37465    [K]
	Block[ 4] -25998487.29364    Van der Waals: 54971.44336        Coulomb: -26053458.73701    [K]
	------------------------------------------------------------------------------
	Average   -25999300.35271    Van der Waals: 55028.457351       Coulomb: -26054328.81006    [K]
	      +/- 1348.83520                    +/- 252.190385              +/- 1410.64100         [K]

Average Adsorbate-Cation energy:
================================
	Block[ 0] -118223.79036      Van der Waals: -78215.83915       Coulomb: -40007.95121       [K]
	Block[ 1] -120008.52061      Van der Waals: -78858.15464       Coulomb: -41150.36597       [K]
	Block[ 2] -123829.56537      Van der Waals: -82016.42319       Coulomb: -41813.14218       [K]
	Block[ 3] -130563.40774      Van der Waals: -87498.17732       Coulomb: -43065.23043       [K]
	Block[ 4] -123123.70399      Van der Waals: -82013.50651       Coulomb: -41110.19748       [K]
	------------------------------------------------------------------------------
	Average   -123149.79762      Van der Waals: -81720.420162      Coulomb: -41429.37745       [K]
	      +/- 5874.29244                    +/- 4562.727671             +/- 1391.25329         [K]

Host polarization energy:
=======================
	Block[ 0]            0.00000 [K]
	Block[ 1]            0.00000 [K]
	Block[ 2]            0.00000 [K]
	Block[ 3]            0.00000 [K]
	Block[ 4]            0.00000 [K]
	------------------------------------------------------------------------------
	Average              0.00000 [K] +/-            0.00000 [K]

Adsorbate polarization energy:
=======================
	Block[ 0]            0.00000 [K]
	Block[ 1]            0.00000 [K]
	Block[ 2]            0.00000 [K]
	Block[ 3]            0.00000 [K]
	Block[ 4]            0.00000 [K]
	------------------------------------------------------------------------------
	Average              0.00000 [K] +/-            0.00000 [K]

Cation polarization energy:
=======================
	Block[ 0]            0.00000 [K]
	Block[ 1]            0.00000 [K]
	Block[ 2]            0.00000 [K]
	Block[ 3]            0.00000 [K]
	Block[ 4]            0.00000 [K]
	------------------------------------------------------------------------------
	Average              0.00000 [K] +/-            0.00000 [K]

Host back-polarization energy:
=======================
	Block[ 0]            0.00000 [K]
	Block[ 1]            0.00000 [K]
	Block[ 2]            0.00000 [K]
	Block[ 3]            0.00000 [K]
	Block[ 4]            0.00000 [K]
	------------------------------------------------------------------------------
	Average              0.00000 [K] +/-            0.00000 [K]

Adsorbate back-polarization energy:
=======================
	Block[ 0]            0.00000 [K]
	Block[ 1]            0.00000 [K]
	Block[ 2]            0.00000 [K]
	Block[ 3]            0.00000 [K]
	Block[ 4]            0.00000 [K]
	------------------------------------------------------------------------------
	Average              0.00000 [K] +/-            0.00000 [K]

Cation back-polarization energy:
=======================
	Block[ 0]            0.00000 [K]
	Block[ 1]            0.00000 [K]
	Block[ 2]            0.00000 [K]
	Block[ 3]            0.00000 [K]
	Block[ 4]            0.00000 [K]
	------------------------------------------------------------------------------
	Average              0.00000 [K] +/-            0.00000 [K]

Tail-correction energy:
=======================
	Block[ 0]            0.00000 [K]
	Block[ 1]            0.00000 [K]
	Block[ 2]            0.00000 [K]
	Block[ 3]            0.00000 [K]
	Block[ 4]            0.00000 [K]
	------------------------------------------------------------------------------
	Average              0.00000 [K] +/-            0.00000 [K]

Distance-constraints energy:
=======================
	Block[ 0]            0.00000 [K]
	Block[ 1]            0.00000 [K]
	Block[ 2]            0.00000 [K]
	Block[ 3]            0.00000 [K]
	Block[ 4]            0.00000 [K]
	------------------------------------------------------------------------------
	Average              0.00000 [K] +/-            0.00000 [K]

Angle-constraints energy:
=======================
	Block[ 0]            0.00000 [K]
	Block[ 1]            0.00000 [K]
	Block[ 2]            0.00000 [K]
	Block[ 3]            0.00000 [K]
	Block[ 4]            0.00000 [K]
	------------------------------------------------------------------------------
	Average              0.00000 [K] +/-            0.00000 [K]

Dihedral-constraints energy:
=======================
	Block[ 0]            0.00000 [K]
	Block[ 1]            0.00000 [K]
	Block[ 2]            0.00000 [K]
	Block[ 3]            0.00000 [K]
	Block[ 4]            0.00000 [K]
	------------------------------------------------------------------------------
	Average              0.00000 [K] +/-            0.00000 [K]

Inversion-bend constraints energy:
=======================
	Block[ 0]            0.00000 [K]
	Block[ 1]            0.00000 [K]
	Block[ 2]            0.00000 [K]
	Block[ 3]            0.00000 [K]
	Block[ 4]            0.00000 [K]
	------------------------------------------------------------------------------
	Average              0.00000 [K] +/-            0.00000 [K]

Out-of-plane-distance constraints energy:
=======================
	Block[ 0]            0.00000 [K]
	Block[ 1]            0.00000 [K]
	Block[ 2]            0.00000 [K]
	Block[ 3]            0.00000 [K]
	Block[ 4]            0.00000 [K]
	------------------------------------------------------------------------------
	Average              0.00000 [K] +/-            0.00000 [K]

Exclusion-constraints energy:
=======================
	Block[ 0]            0.00000 [K]
	Block[ 1]            0.00000 [K]
	Block[ 2]            0.00000 [K]
	Block[ 3]            0.00000 [K]
	Block[ 4]            0.00000 [K]
	------------------------------------------------------------------------------
	Average              0.00000 [K] +/-            0.00000 [K]

Total energy:
=============
	Block[ 0]    -13653195.62269 [K]
	Block[ 1]    -13654194.04514 [K]
	Block[ 2]    -13661220.74730 [K]
	Block[ 3]    -13675160.46377 [K]
	Block[ 4]    -13660025.85387 [K]
	------------------------------------------------------------------------------
	Average      -13660759.34655 [K] +/-        10901.87511 [K]

Number of molecules:
====================

Component 0 [sodium]
-------------------------------------------------------------
	Block[ 0] 96.00000           [-]
	Block[ 1] 96.00000           [-]
	Block[ 2] 96.00000           [-]
	Block[ 3] 96.00000           [-]
	Block[ 4] 96.00000           [-]
	------------------------------------------------------------------------------
	Average loading absolute                             96.0000000000 +/-       0.0000000000 [-]
	Average loading absolute [molecules/unit cell]       96.0000000000 +/-       0.0000000000 [-]
	Average loading absolute [mol/kg framework]                  7.0395562309 +/-       0.0000000000 [-]
	Average loading absolute [milligram/gram framework]        161.8377786500 +/-       0.0000000000 [-]
	Average loading absolute [cm^3 (STP)/gr framework]         157.7844426328 +/-       0.0000000000 [-]
	Average loading absolute [cm^3 (STP)/cm^3 framework]       241.3344516153 +/-       0.0000000000 [-]

	Block[ 0] 96.00000           [-]
	Block[ 1] 96.00000           [-]
	Block[ 2] 96.00000           [-]
	Block[ 3] 96.00000           [-]
	Block[ 4] 96.00000           [-]
	------------------------------------------------------------------------------
	Average loading excess                             96.0000000000 +/-       0.0000000000 [-]
	Average loading excess [molecules/unit cell]       96.0000000000 +/-       0.0000000000 [-]
	Average loading excess [mol/kg framework]                    7.0395562309 +/-       0.0000000000 [-]
	Average loading excess [milligram/gram framework]          161.8377786500 +/-       0.0000000000 [-]
	Average loading excess [cm^3 (STP)/gr framework]           157.7844426328 +/-       0.0000000000 [-]
	Average loading excess [cm^3 (STP)/cm^3 framework]         241.3344516153 +/-       0.0000000000 [-]

Component 1 [CO2]
-------------------------------------------------------------
	Block[ 0] 34.93260           [-]
	Block[ 1] 35.07220           [-]
	Block[ 2] 36.26960           [-]
	Block[ 3] 38.21880           [-]
	Block[ 4] 36.06460           [-]
	------------------------------------------------------------------------------
	Average loading absolute                             36.1115600000 +/-       1.6349978026 [-]
	Average loading absolute [molecules/unit cell]       36.1115600000 +/-       1.6349978026 [-]
	Average loading absolute [mol/kg framework]                  2.6480141376 +/-       0.1198922809 [-]
	Average loading absolute [milligram/gram framework]        116.5094444352 +/-       5.2751164900 [-]
	Average loading absolute [cm^3 (STP)/gr framework]          59.3525246583 +/-       2.6872626770 [-]
	Average loading absolute [cm^3 (STP)/cm^3 framework]        90.7808700997 +/-       4.1102218550 [-]

	Block[ 0] 34.93260           [-]
	Block[ 1] 35.07220           [-]
	Block[ 2] 36.26960           [-]
	Block[ 3] 38.21880           [-]
	Block[ 4] 36.06460           [-]
	------------------------------------------------------------------------------
	Average loading excess                             36.1115600000 +/-       1.6349978026 [-]
	Average loading excess [molecules/unit cell]       36.1115600000 +/-       1.6349978026 [-]
	Average loading excess [mol/kg framework]                    2.6480141376 +/-       0.1198922809 [-]
	Average loading excess [milligram/gram framework]          116.5094444352 +/-       5.2751164900 [-]
	Average loading excess [cm^3 (STP)/gr framework]            59.3525246583 +/-       2.6872626770 [-]
	Average loading excess [cm^3 (STP)/cm^3 framework]          90.7808700997 +/-       4.1102218550 [-]


Average Widom Rosenbluth factor:
================================
	Block[ 0] 0 [-]
	Block[ 1] 0 [-]
	Block[ 2] 0 [-]
	Block[ 3] 0 [-]
	Block[ 4] 0 [-]
	------------------------------------------------------------------------------
	[sodium] Average Widom Rosenbluth-weight:   0 +/- 0.000000 [-]
	Block[ 0] 0 [-]
	Block[ 1] 0 [-]
	Block[ 2] 0 [-]
	Block[ 3] 0 [-]
	Block[ 4] 0 [-]
	------------------------------------------------------------------------------
	[CO2] Average Widom Rosenbluth-weight:   0 +/- 0.000000 [-]

Average Widom chemical potential:
=================================
	Block[ 0] 0 [-]
	Block[ 1] 0 [-]
	Block[ 2] 0 [-]
	Block[ 3] 0 [-]
	Block[ 4] 0 [-]
	------------------------------------------------------------------------------
	[sodium] Average chemical potential:   0 +/- 0.000000 [K]
	Block[ 0] 0 [-]
	Block[ 1] 0 [-]
	Block[ 2] 0 [-]
	Block[ 3] 0 [-]
	Block[ 4] 0 [-]
	------------------------------------------------------------------------------
	[CO2] Average chemical potential:   0 +/- 0.000000 [K]

Average Widom Ideal-gas contribution:
=====================================
	Block[ 0] 0 [-]
	Block[ 1] 0 [-]
	Block[ 2] 0 [-]
	Block[ 3] 0 [-]
	Block[ 4] 0 [-]
	------------------------------------------------------------------------------
	[sodium] Average Widom Ideal-gas chemical potential:   0 +/- 0.000000 [-]
	Block[ 0] 0 [-]
	Block[ 1] 0 [-]
	Block[ 2] 0 [-]
	Block[ 3] 0 [-]
	Block[ 4] 0 [-]
	------------------------------------------------------------------------------
	[CO2] Average Widom Ideal-gas chemical potential:   0 +/- 0.000000 [-]

Average Widom excess contribution:
==================================
	Block[ 0] 0 [-]
	Block[ 1] 0 [-]
	Block[ 2] 0 [-]
	Block[ 3] 0 [-]
	Block[ 4] 0 [-]
	------------------------------------------------------------------------------
	[sodium] Average Widom excess chemical potential:   0 +/- 0.000000 [-]
	Block[ 0] 0 [-]
	Block[ 1] 0 [-]
	Block[ 2] 0 [-]
	Block[ 3] 0 [-]
	Block[ 4] 0 [-]
	------------------------------------------------------------------------------
	[CO2] Average Widom excess chemical potential:   0 +/- 0.000000 [-]

Average Gibbs Widom Rosenbluth factor:
======================================
	Block[ 0] 0 [-]
	Block[ 1] 0 [-]
	Block[ 2] 0 [-]
	Block[ 3] 0 [-]
	Block[ 4] 0 [-]
	------------------------------------------------------------------------------
	[sodium] Average Gibbs Widom Rosenbluth-weight:   0 +/- 0.000000 [-]
	Block[ 0] 0 [-]
	Block[ 1] 0 [-]
	Block[ 2] 0 [-]
	Block[ 3] 0 [-]
	Block[ 4] 0 [-]
	------------------------------------------------------------------------------
	[CO2] Average Gibbs Widom Rosenbluth-weight:   0 +/- 0.000000 [-]

Average Gibbs Widom chemical potential:
=======================================
	Block[ 0] 0 [-]
	Block[ 1] 0 [-]
	Block[ 2] 0 [-]
	Block[ 3] 0 [-]
	Block[ 4] 0 [-]
	------------------------------------------------------------------------------
	[sodium] Average Gibbs chemical potential:   0 +/- 0.000000 [K]
	Block[ 0] 0 [-]
	Block[ 1] 0 [-]
	Block[ 2] 0 [-]
	Block[ 3] 0 [-]
	Block[ 4] 0 [-]
	------------------------------------------------------------------------------
	[CO2] Average Gibbs chemical potential:   0 +/- 0.000000 [K]

Average Gibbs Widom Ideal-gas contribution:
===========================================
	Block[ 0] 0 [-]
	Block[ 1] 0 [-]
	Block[ 2] 0 [-]
	Block[ 3] 0 [-]
	Block[ 4] 0 [-]
	------------------------------------------------------------------------------
	[sodium] Average Gibbs Ideal-gas chemical potential:   0 +/- 0.000000 [-]
	Block[ 0] 0 [-]
	Block[ 1] 0 [-]
	Block[ 2] 0 [-]
	Block[ 3] 0 [-]
	Block[ 4] 0 [-]
	------------------------------------------------------------------------------
	[CO2] Average Gibbs Ideal-gas chemical potential:   0 +/- 0.000000 [-]

Average Gibbs Widom excess contribution:
===========================================
	Block[ 0] 0 [-]
	Block[ 1] 0 [-]
	Block[ 2] 0 [-]
	Block[ 3] 0 [-]
	Block[ 4] 0 [-]
	------------------------------------------------------------------------------
	[sodium] Average Gibbs excess chemical potential:   0 +/- 0.000000 [-]
	Block[ 0] 0 [-]
	Block[ 1] 0 [-]
	Block[ 2] 0 [-]
	Block[ 3] 0 [-]
	Block[ 4] 0 [-]
	------------------------------------------------------------------------------
	[CO2] Average Gibbs excess chemical potential:   0 +/- 0.000000 [-]

Average Henry coefficient:
==========================
	Block[ 0] 0 [mol/kg/Pa]
	Block[ 1] 0 [mol/kg/Pa]
	Block[ 2] 0 [mol/kg/Pa]
	Block[ 3] 0 [mol/kg/Pa]
	Block[ 4] 0 [mol/kg/Pa]
	------------------------------------------------------------------------------
	[sodium] Average Henry coefficient:  0 +/- 0 [mol/kg/Pa]
	Block[ 0] 0 [mol/kg/Pa]
	Block[ 1] 0 [mol/kg/Pa]
	Block[ 2] 0 [mol/kg/Pa]
	Block[ 3] 0 [mol/kg/Pa]
	Block[ 4] 0 [mol/kg/Pa]
	------------------------------------------------------------------------------
	[CO2] Average Henry coefficient:  0 +/- 0 [mol/kg/Pa]

Average adsorption energy <U_gh>_1-<U_h>_0 obtained from Widom-insertion:
(Note: the total heat of adsorption is dH=<U_gh>_1-<U_h>_0 - <U_g> - RT)
=========================================================================

Simulation finished,  0 warnings


Tue May 18 16:18:39 2021
Simulation finished on Tuesday, May 18.
The end time was 04:18 PM.

