Compiler and run-time data
===========================================================================
RASPA 2.0.45
Compiled as a 64-bits application
Compiler: gcc Apple LLVM 12.0.5 (clang-1205.0.22.9)
Compile Date = May 18 2021, Compile Time = 12:54:12

Thu May 20 10:11:03 2021
Simulation started on Thursday, May 20.
The start time was 10:11 AM.

Cpu data:    x86_64
Cpu Model:   MacPro7,1
Host name:   MacPro.local
OS release:  20.4.0
OS type:     Darwin
OS version:  20E232


Simulation
===========================================================================
Dimensions: 3
Random number seed: 1621498263
RASPA directory set to: /Users/dubbelda/RASPA/simulations/
String appended to output-files: 
Number of cycles: 1
Number of initializing cycles: 0
Number of equilibration cycles: 0
Print every: 1
Triclinic boundary condition applied
Timestep: 0.000500
	Degrees of freedom:                        108
	Translational Degrees of freedom:          108
	Rotational Degrees of freedom:             0
	Degrees of freedom Framework:              108


Mutual consistent basic set of units:
======================================
Unit of temperature: Kelvin
Unit of length:      1e-10 [m]
Unit of time:        1e-12 [s]
Unit of mass:        1.66054e-27 [kg]
Unit of charge:      1.60218e-19 [C/particle]

Derived units and their conversion factors:
===========================================
Unit of energy:              1.66054e-23 [J]
Unit of force:               1.66054e-13 [N]
Unit of pressure:            1.66054e+07 [Pa]
Unit of velocity:            100 [m/s]
Unit of acceleration:        1e-08 [m^2/s]
Unit of diffusion:           1e-08 [m^2/s]
Unit of dipole moment:       1.60218e-29 [C.m]
Unit of electric potential:  0.000103643 [V]
Unit of electric field:      1.03643e+06 [V]
Unit of polarizability:      1.54587e-35 [-]
Unit of Coulomb potential:   167101.0800066561  [K]
Unit of dielectric constant: 0.0000154587       [s^2 C^2/(kg m^3)]
Unit of wave vectors:        5.3088374589       [cm^1]
Boltzmann constant:          0.8314464919       [-]

Internal conversion factors:
===========================================
Energy to Kelvin:                                    1.2027242847
FH correction factor                                 2.0211930949
Heat capacity conversion factor:                    10.0000088723
From Debye to internal units:                        4.8032067991
Isothermal compressibility conversion factor:        0.0000000602

Energy conversion factors:
===========================================
From mdyne/A to kcal/mol/A^2:           143.933
From mdyne/A to kj/mol/A^2:             602.214
From mdyne/A to K/A^2:                  72429.7
From mdyne A/rad^2 to kcal/mol/deg^2:   0.0438444


Properties computed
===========================================================================
Movies: yes
	Movie snapshots are appended to file every 1 cycles
Radial Distribution Function: no
Number of molecules GCMC histogram: no
Histogram of the molecule positions: no
Free energy profiles: no
Pore Size Distribution Function: no
End-to-end distance: no
Histogram of the energy of the system: no
Compute thermodynamic factors: no
Framework spacing histograms: no
Residence times histograms: no
Distance histograms: no
Bend Angle histograms: no
Dihedral angle histograms: no
Angle between planes histograms: no
Molecule properties: no
Infra-red spectra: no
Mean-squared displacement using modified order-N algorithm: no
Velocity-autocorrelation function modified order-N algorithm: no
Rotational velocity-autocorrelation function modified order-N algorithm: no
Molecular orientation-autocorrelation function modified order-N algorithm: no
Bond orientation-autocorrelation function modified order-N algorithm: no
Mean-squared displacement (conventional algorithm): no
Velocity-autocorrelation function (conventional algorithm): no
3D density grid for adsorbates: no
Compute cation an/or adsorption sites: no
dcTST snapshots: no
Compute pressure and stress: no


VTK
===========================================================================
VTK fractional-range position framework atoms: [-0.001000,1.001000] [-0.001000,1.001000] [-0.001000,1.001000]
VTK fractional-range position framework bonds: [-0.151000,1.151000] [-0.151000,1.151000] [-0.151000,1.151000]
VTK fractional-range com-position adsorbate molecules: [-0.101000,1.101000] [-0.101000,1.101000] [-0.101000,1.101000]
VTK fractional-range com-position cation molecules: [-0.101000,1.101000] [-0.101000,1.101000] [-0.101000,1.101000]
	3D free energy grid made for the full simulation-cell


Thermo/Baro-stat NHC parameters
===========================================================================
External temperature: 300 [K]
Beta: 0.00400908 [energy unit]
External Pressure: 0 [Pa]


Thermostat chain-length: 3
Timescale parameter for thermostat: 0.150000 [ps]
Barostat chain-length:   3
Timescale parameter for barostat:   0.150000 [ps]

Number of Yoshida-Suzuki decomposition steps: 5
Number of respa steps: 5


Method and settings for electrostatics
===============================================================================
Dielectric constant of the medium : 1.000000
Charge from charge-equilibration: no
Ewald summation is used (exact solution of a periodic system)
Relative precision                : 1e-10
Alpha convergence parameter       : 0.363526
kvec (x,y,z)                      : 5 5 5


CFC-RXMC parameters
===========================================================================
Number of reactions: 0


Rattle parameters
===========================================================================
Distance constraint type: r^2-r^2_0
Bend angle constraint type: theta-theta_0
Dihedral angle constraint type: phi-phi_0
Inversion-bend angle constraint type: chi-chi_0
Out-of-plane distance constraint type: r-r_0


Spectra parameters
===========================================================================
Compute normal modes: no


Minimization parameters
===========================================================================
Generalized coordinates are: Cartesian center-of-mass, elements of the orientational matrix p1,p2,p3 and strain
Potential derivatives are evaluated: analytically
Translation of the system is removed from the generalized Hessian: no
Rotation of the system is removed from the generalized Hessian: no
Maximum step-length: 0.3
Convergence factor: 1
Maximum number of minimization steps: 10000
Use gradients in the line-minimizations: yes
RMS gradient tolerance: 1e-06
Maximum gradient tolerance: 1e-06

Distance constraints: 0
Angle constraints: 0
Dihedral constraints: 0

Improper dihedral constraints: 0

Inversion-bend constraints: 0

Out-of-plane constraints: 0

Harmonic distance constraints: 0
Harmonic angle constraints: 0
Harmonic dihedral constraints: 0

Dihedral mid-point measurements: 0

Number of fixed framework atoms: 0  (active: 36)
fixed atom-list: 
Number of active framework atoms: 36  (fixed: 0)
active atom-list: 

Fixed adsorbate atoms:  
Fixed adsorbate groups (center-of-mass):  
Fixed adsorbate groups (orientation):  

Fixed cation atoms:  
Fixed cation groups (center-of-mass):  
Fixed cation groups (orientation):  


dcTST parameters
===========================================================================
Free energy profiles computed: no
Free energy profiles written every 5000 cycles
Free energy mapping: mapped to a,b,c-coordinates
BarrierPosition:       0.0000000000       0.0000000000       0.0000000000
BarrierNormal:         0.0000000000       0.0000000000       0.0000000000
Start with a molecule on top of the barrier: no
Maximum distance to barrier (e.g. distance to minumum free energy):       0.0000000000 [A]
Maximum trajectory time:      10.0000000000 [ps]
Each configuration is used with 5 different initial velocities


Cbmc parameters
===========================================================================
Biasing method: using only the VDW part
Number of trial positions:                                       10
Number of trial positions (reinsertion):                         10
Number of trial positions (partial reinsertion):                 10
Number of trial positions (identity-change):                     10
Number of trial positions (Gibbs particle transfer):             10
Number of trial positions (insertion/deletion):                  10
Number of trial positions (Widom insertion):                     10
Number of trial positions coupled Torsion-selection:             100
Number of trial positions first bead:                            10
Number of trial positions first bead (reinsertion):              10
Number of trial positions first bead (partial reinsertion):      10
Number of trial positions first bead (identity-change):          10
Number of trial positions first bead (Gibbs particle transfer):  10
Number of trial positions first bead (insertion/deletion):       10
Number of trial positions first bead (Widom insertion):          10
Number of trial moves per open bead:                             150
Target acceptance ratio small-mc scheme:                         0.400000
Energy overlap criteria:                                         1e+07
Minimal Rosenbluth factor:                                       1e-150


Pseudo atoms: 5
===========================================================================
Pseudo Atom[   0] Name UNIT     Oxidation:          Element: H    pdb-name: H    Scat. Types:   1   1 Mass=1.000000000  B-factor:0.000   
                 Charge=1.000000000          Polarization=0.000000000  [A^3] (considered a charged atom and no polarization)  Interactions:  no
                 Anisotropic factor:    0.000 [-] (Absolute), Radius:    1.000 [A], Framework-atom:  no
Pseudo Atom[   1] Name O        Oxidation: +0       Element: O    pdb-name: O    Scat. Types:   9   8 Mass=15.999400000 B-factor:1.000   
                 Charge=-0.550000000         Polarization=0.000000000  [A^3] (considered a charged atom and no polarization)  Interactions: yes
                 Anisotropic factor:    0.000 [-] (Relative), Radius:    0.640 [A], Framework-atom: yes (charge from pseudo-atoms file)
Pseudo Atom[   2] Name Oa       Oxidation: +0       Element: O    pdb-name: O    Scat. Types:   9   8 Mass=15.999400000 B-factor:1.000   
                 Charge=-0.550000000         Polarization=0.000000000  [A^3] (considered a charged atom and no polarization)  Interactions:  no
                 Anisotropic factor:    0.000 [-] (Relative), Radius:    0.640 [A], Framework-atom:  no
Pseudo Atom[   3] Name Si       Oxidation: +0       Element: Si   pdb-name: Si   Scat. Types:  15  14 Mass=28.085500000 B-factor:1.000   
                 Charge=1.100000000          Polarization=0.000000000  [A^3] (considered a charged atom and no polarization)  Interactions: yes
                 Anisotropic factor:    0.000 [-] (Relative), Radius:    1.140 [A], Framework-atom: yes (charge from pseudo-atoms file)
Pseudo Atom[   4] Name Al       Oxidation: +0       Element: Si   pdb-name: Si   Scat. Types:  15  14 Mass=28.085500000 B-factor:1.000   
                 Charge=1.100000000          Polarization=0.000000000  [A^3] (considered a charged atom and no polarization)  Interactions:  no
                 Anisotropic factor:    0.000 [-] (Relative), Radius:    1.140 [A], Framework-atom:  no


Forcefield: Nicholas
===========================================================================
Minimal distance: 1
CutOff VDW : 12.000000 (144.000000)
CutOff VDW switching on: 10.800000 (116.640000)
CutOff charge-charge : 12.000000 (144.000000)
CutOff charge-charge switching on: 7.800000 (60.840000)
CutOff charge-bonddipole : 12.000000 (144.000000)
CutOff charge-bondipole switching on: 8.400000 (70.560000)
CutOff bonddipole-bonddipole : 12.000000 (144.000000)
CutOff bonddipole-bondipole switching on: 9.000000 (81.000000)
Polarization is neglected
All potentials are shifted to zero at the Cutoff

No general mixing rule: all cross term specified individualy
0 cross terms are overwritten using the individual mixing rules from the file 'force_field_mixing_rules.def'
and then 3 terms are overwritten using the specific interactions from the file 'force_field.def'

The force field and all the interactions:
      O -       O [LENNARD_JONES] p_0/k_B:  29.43383 [K], p_1: 3.06222 [A], shift/k_B:   0.00000000 [K], tailcorrection: no
      O -      Si [LENNARD_JONES] p_0/k_B:  49.05711 [K], p_1: 3.48335 [A], shift/k_B:   0.00000000 [K], tailcorrection: no
     Si -      Si [LENNARD_JONES] p_0/k_B:  81.76308 [K], p_1: 3.96239 [A], shift/k_B:   0.00000000 [K], tailcorrection: no


MoleculeDefinitions:
===========================================================================
No components defined in 'simulation.input'


Framework Status
===========================================================================
Lowenstein's rule obeyed by framework
	Framework is modelled as: flexible using the model of Nicholas
	==================================================================================

	Number of Bonds definitions: 1
	--------------------------------------------
	Bond interaction between [Si-O] using bond-type: HARMONIC_BOND (48 bonds)
	  args: 2   arg[0]=300724.776636 arg[1]=1.610000 

	Number of Urey-Bradley definitions: 1
	--------------------------------------------
	Urey-Bradley interaction between [Si-(O)-Si] using Urey-Bradley-type:HARMONIC_BOND (24 Urey-Bradleys)
	  args: 2   arg[0]=27488.737702 arg[1]=3.126100 

	Number of Bend definitions: 2
	--------------------------------------------
	Bend interaction between [O-Si-O] using bend-type: HARMONIC_COSINE_BEND (72 bends)
	  args: 2   arg[0]=69537.444166 arg[1]=109.500000 
	Bend interaction between [Si-O-Si] using bend-type: QUARTIC_BEND (24 bends)
	  args: 4   arg[0]=5462.505569 arg[1]=149.500000 arg[2]=-17157.805511 arg[3]=13351.672598 

	Number of Bend/Torsion cross-term definitions: 1
	--------------------------------------------
	Bend/Torsion cross-term interaction between [Si-O-Si-O] using bend/torsion-type:SMOOTHED_THREE_COSINE_DIHEDRAL (144 bend-torsions)
	  args: 3   arg[0]=0.000000 arg[1]=0.000000 arg[2]=-352.419700 


	Number of core/shells:                           0
	Number of bonds:                                 48
	Number of bond-dipoles:                          0
	Number of bends:                                 96
	Number of Urey-Bradleys:                         24
	Number of Inversion bends:                       0
	Number of Torsions:                              0
	Number of Improper Torsions:                     0
	Number of Out-of-planes:                         0
	Number of bond-bond cross terms:                 0
	Number of bond-bend cross terms:                 0
	Number of bend-bend cross terms:                 0
	Number of stretch-torsion cross terms:           0
	Number of bend-torsion cross terms:              144

	Number of charges:                               36
	Number of bonddipoles:                           0

	Number of Intra VDW:                             34104
	Number of Intra Coulomb charge-charge:           34104
	Number of Intra Coulomb charge-bonddipole:       0
	Number of Intra Coulomb bonddipoles:             0
	Number of excluded Intra VDW:                    222
	Number of excluded intra charge-charge:          144
	Number of excluded intra charge-bonddipole:      0
	Number of excluded intra bonddipole-bonddipole:  0


	Number of 1-2 intra-framework pairs: 48
	Number of 1-3 intra-framework pairs: 96
	Number of 1-4 intra-framework pairs: 144
	Number of 1-2,1-3 intra-framework pairs: 144
	Number of 1-2,1-3,1-4 intra-framework pairs: 288
	Bond interactions are removed (excluded from VDW and Coulomb interactions)
	Bend interactions are removed (excluded from VDW and Coulomb interactions)
	Torsion interactions are *included* in the VDW and Coulomb interactions
	Remove12NeighboursFromVDWInteraction no
	Remove13NeighboursFromVDWInteraction no
	Remove14NeighboursFromVDWInteraction no
	Remove12NeighboursFromChargeChargeInteraction no
	Remove13NeighboursFromChargeChargeInteraction no
	Remove14NeighboursFromChargeChargeInteraction no
	Remove11NeighboursFromChargeBondDipoleInteraction no
	Remove12NeighboursFromChargeBondDipoleInteraction no
	Remove13NeighboursFromChargeBondDipoleInteraction no
	Remove14NeighboursFromChargeBondDipoleInteraction no
	Remove12NeighboursFromBondDipoleBondDipoleInteraction no
	Remove13NeighboursFromBondDipoleBondDipoleInteraction no
	Remove14NeighboursFromBondDipoleBondDipoleInteraction no
	InternalFrameworkLennardJonesInteractions yes


System Properties
===========================================================================
Unit cell size: 9.459000 9.459000 9.459000
Cell angles (radians)  alpha: 1.641831 beta: 1.641831 gamma: 1.641831
Cell angles (degrees)  alpha: 94.070000 beta: 94.070000 gamma: 94.070000
Number of unitcells [a]: 1
Number of unitcells [b]: 1
Number of unitcells [c]: 1

TRICLINIC Boundary conditions: alpha!=90 or beta!=90 or gamma!=90

Cartesian axis A is collinear with crystallographic axis a
Cartesian axis B is collinear with (axb)xA
Cartesian axis C is collinear with (axb)

lengths of cell vectors:
  9.45900   9.45900   9.45900
cosines of cell angles:
 -0.07098  -0.07098  -0.07098
perpendicular cell widths:
  9.40757   9.40757   9.40757
volume of the cell:   839.597795610128 (A^3)

Orthogonalization matrix Box
Transforms fractional coordinates abc into orthonormal Cartesian coordinates xyz
Deorthogonalization matrix InverseBox
Transforms orthonormal Cartesian coordinates xyz into fractional coordinates xyz

Box[0]:
	    9.459000000000    -0.671354187733    -0.671354187733
	    0.000000000000     9.435145179308    -0.720821521864
	    0.000000000000     0.000000000000     9.407570403044

Inverse box[0]:
	    0.105719420658     0.007522425404     0.008120853593
	   -0.000000000000     0.105986710432     0.008120853593
	    0.000000000000    -0.000000000000     0.106297370857


Unitcell box[0]:
	    9.459000000000    -0.671354187733    -0.671354187733
	    0.000000000000     9.435145179308    -0.720821521864
	    0.000000000000     0.000000000000     9.407570403044

Unitcell inverse box[0]:
	    0.105719420658     0.007522425404     0.008120853593
	   -0.000000000000     0.105986710432     0.008120853593
	    0.000000000000    -0.000000000000     0.106297370857

lengths of cell vectors (inverse box):
  0.10572   0.10625   0.10692
cosines of cell angles (inverse box):
  0.08114   0.07596   0.07080
perpendicular cell widths (inverse):
  0.10519   0.10568   0.10630
volume of the cell:   839.597795610128 (A^3)

Number of Replica Cells: 3 3 3
Replica Box:
	   28.377000000000    -2.014062563199    -2.014062563199
	    0.000000000000    28.305435537923    -2.162464565591
	    0.000000000000     0.000000000000    28.222711209132

Shift of the Replica cells:
	[cell:  0]     0.000000000000     0.000000000000     0.000000000000
	[cell:  1]    -0.671354187733    -0.720821521864     9.407570403044
	[cell:  2]    -1.342708375466    -1.441643043727    18.815140806088
	[cell:  3]    -0.671354187733     9.435145179308     0.000000000000
	[cell:  4]    -1.342708375466     8.714323657444     9.407570403044
	[cell:  5]    -2.014062563199     7.993502135581    18.815140806088
	[cell:  6]    -1.342708375466    18.870290358615     0.000000000000
	[cell:  7]    -2.014062563199    18.149468836752     9.407570403044
	[cell:  8]    -2.685416750932    17.428647314888    18.815140806088
	[cell:  9]     9.459000000000     0.000000000000     0.000000000000
	[cell: 10]     8.787645812267    -0.720821521864     9.407570403044
	[cell: 11]     8.116291624534    -1.441643043727    18.815140806088
	[cell: 12]     8.787645812267     9.435145179308     0.000000000000
	[cell: 13]     8.116291624534     8.714323657444     9.407570403044
	[cell: 14]     7.444937436801     7.993502135581    18.815140806088
	[cell: 15]     8.116291624534    18.870290358615     0.000000000000
	[cell: 16]     7.444937436801    18.149468836752     9.407570403044
	[cell: 17]     6.773583249068    17.428647314888    18.815140806088
	[cell: 18]    18.918000000000     0.000000000000     0.000000000000
	[cell: 19]    18.246645812267    -0.720821521864     9.407570403044
	[cell: 20]    17.575291624534    -1.441643043727    18.815140806088
	[cell: 21]    18.246645812267     9.435145179308     0.000000000000
	[cell: 22]    17.575291624534     8.714323657444     9.407570403044
	[cell: 23]    16.903937436801     7.993502135581    18.815140806088
	[cell: 24]    17.575291624534    18.870290358615     0.000000000000
	[cell: 25]    16.903937436801    18.149468836752     9.407570403044
	[cell: 26]    16.232583249068    17.428647314888    18.815140806088

Framework is simulated as 'flexible'
Number of framework atoms: 36
Number of framework atoms in the unit cell: 36
Framework Mass:   721.011600000000 [g/mol]
Framework Density:  1426.001462216283 [kg/m^3]    0.7012615530182 [cm^3/g]
Helium void fraction:    0.00000000
Available pore volume:    0.00000000 [A^3]    0.00000000 [cm^3/g]
Conversion factor from molecule/unit cell -> kmol/m^3: 1.97778, kmol/m^3 accesible pore volume: inf

Number Of Frameworks (per system): 1
----------------------------------------------------------------------
Framework name: CHA_SI
Citation:
	author name:        'M. Calligaris, G. Nardin, and L. Randaccio'
	title:              'Cation site location in hydrated chabazites - crystal structure of potassium-exchanged and silver-exchanged chabazites'
	journal abbrev.:    'Zeolites'
	journal volume:     3
	first page:         205
	last page:          208
	year:               1983
Space group: 166
	Identifier: 459
	short international Hermann-Mauguin symbol: R -3 m:R
	long international Hermann-Mauguin symbol: R -3 2/m:R
	Hall symbol: -P 3* 2
	Number of lattice translations: 1 [ (0,0,0) ]
	acentric/centric: acentric
	chiral: yes
	enantiomorphic: no
	number of operators: 12
		'x,y,z'
		'z,x,y'
		'y,z,x'
		'-y,-x,-z'
		'-x,-z,-y'
		'-z,-y,-x'
		'-x,-y,-z'
		'-z,-x,-y'
		'-y,-z,-x'
		'y,x,z'
		'x,z,y'
		'z,y,x'
Framework is simulated as 'flexible'
Shift: 0.000000 0.000000 0.000000
Number of framework atoms: 36
Number of asymmetric atoms: 5
Number of free framework atoms: 36
Number of fixed framework atoms: 0
Number of framework atoms in the unit cell: 36
Framework Mass:   721.011600000000 [g/mol]
Framework Density:  1426.001462216283 [kg/m^3]
Framework has net charge: 0.000000
         largest charge : 1.100000
         smallest charge: -0.550000


Current Atom Status
===========================================================================
Number of framework atoms        : 36
Number of cations molecules      : 0
Number of adsorbate molecules    : 0
Pseudo Atoms    0 [    UNIT]:    0 atoms
Pseudo Atoms    1 [       O]:   24 atoms
Pseudo Atoms    2 [      Oa]:    0 atoms
Pseudo Atoms    3 [      Si]:   12 atoms
Pseudo Atoms    4 [      Al]:    0 atoms


Current (initial full energy) Energy Status
===========================================================================

Internal energy:
Host stretch energy:                                        10910.65632293
Host UreyBradley energy:                                      453.34157188
Host bend energy:                                            3125.14028470
Host inversion-bend energy:                                     0.00000000
Host torsion energy:                                            0.00000000
Host improper torsion energy:                                   0.00000000
Host out-of-plane energy:                                       0.00000000
Host stretch/stretch energy:                                    0.00000000
Host bend/bend energy:                                          0.00000000
Host stretch/bend energy:                                       0.00000000
Host stretch/torsion energy:                                    0.00000000
Host bend/torsion energy:                                  -19860.81550527

Adsorbate stretch energy:                                       0.00000000
Adsorbate UreyBradley energy:                                   0.00000000
Adsorbate bend energy:                                          0.00000000
Adsorbate inversion-bend energy:                                0.00000000
Adsorbate torsion energy:                                       0.00000000
Adsorbate improper torsion energy:                              0.00000000
Adsorbate out-of-plane energy:                                  0.00000000
Adsorbate stretch/stretch energy:                               0.00000000
Adsorbate bend/bend energy:                                     0.00000000
Adsorbate stretch/bend energy:                                  0.00000000
Adsorbate stretch/torsion energy:                               0.00000000
Adsorbate bend/torsion energy:                                  0.00000000
Adsorbate intra VDW energy:                                     0.00000000
Adsorbate intra charge-charge Coulomb energy:                   0.00000000
Adsorbate intra charge-bonddipole Coulomb energy:               0.00000000
Adsorbate intra bonddipole-bonddipole Coulomb energy:           0.00000000

Cation stretch energy:                                          0.00000000
Cation UreyBradley energy:                                      0.00000000
Cation bend energy:                                             0.00000000
Cation inversion-bend energy:                                   0.00000000
Cation torsion energy:                                          0.00000000
Cation improper torsion energy:                                 0.00000000
Cation out-of-plane energy:                                     0.00000000
Cation stretch/stretch energy:                                  0.00000000
Cation bend/bend energy:                                        0.00000000
Cation stretch/bend energy:                                     0.00000000
Cation stretch/torsion energy:                                  0.00000000
Cation bend/torsion energy:                                     0.00000000
Cation intra VDW energy:                                        0.00000000
Cation intra charge-charge Coulomb energy:                      0.00000000
Cation intra charge-bonddipole Coulomb energy:                  0.00000000
Cation intra bonddipole-bonddipole Coulomb energy:              0.00000000

Host/Host energy:                                      -1583507.63955491
	Host/Host VDW energy:                                    -16236.46253038
	Host/Host Coulomb energy:                              -1567271.17702453
	Host/Host charge-charge Real energy:                    -100636.68986137
	Host/Host charge-charge Fourier energy:                -1466634.48716316
	Host/Host charge-bonddipole Real energy:                      0.00000000
	Host/Host charge-bonddipole Fourier energy:                   0.00000000
	Host/Host bondipole-bonddipole Real energy:                   0.00000000
	Host/Host bondipole-bonddipole Fourier energy:                0.00000000

Host/Adsorbate energy:                                        0.00000000
	Host/Adsorbate VDW energy:                                    0.00000000
	Host/Adsorbate Coulomb energy:                                0.00000000
	Host/Adsorbate charge-charge Real energy:                     0.00000000
	Host/Adsorbate charge-charge Fourier energy:                  0.00000000
	Host/Adsorbate charge-bonddipole Real energy:                 0.00000000
	Host/Adsorbate charge-bonddipole Fourier energy:              0.00000000
	Host/Adsorbate bondipole-bonddipole Real energy:              0.00000000
	Host/Adsorbate bondipole-bonddipole Fourier energy:           0.00000000

Host/Cation energy:                                           0.00000000
	Host/Cation VDW energy:                                       0.00000000
	Host/Cation Coulomb energy:                                   0.00000000
	Host/Cation charge-charge Real energy:                        0.00000000
	Host/Cation charge-charge Fourier energy:                     0.00000000
	Host/Cation charge-bonddipole Real energy:                    0.00000000
	Host/Cation charge-bonddipole Fourier energy:                 0.00000000
	Host/Cation bondipole-bonddipole Real energy:                 0.00000000
	Host/Cation bondipole-bonddipole Fourier energy:              0.00000000

Adsorbate/Adsorbate energy:                                        0.00000000
	Adsorbate/Adsorbate VDW energy:                                    0.00000000
	Adsorbate/Adsorbate Coulomb energy:                                0.00000000
	Adsorbate/Adsorbate charge-charge Real energy:                     0.00000000
	Adsorbate/Adsorbate charge-charge Fourier energy:                  0.00000000
	Adsorbate/Adsorbate charge-bonddipole Real energy:                 0.00000000
	Adsorbate/Adsorbate charge-bonddipole Fourier energy:              0.00000000
	Adsorbate/Adsorbate bondipole-bonddipole Real energy:              0.00000000
	Adsorbate/Adsorbate bondipole-bonddipole Fourier energy:           0.00000000

Adsorbate/Cation energy:                                           0.00000000
	Adsorbate/Cation VDW energy:                                       0.00000000
	Adsorbate/Cation Coulomb energy:                                   0.00000000
	Adsorbate/Cation charge-charge Real energy:                        0.00000000
	Adsorbate/Cation charge-charge Fourier energy:                     0.00000000
	Adsorbate/Cation charge-bonddipole Real energy:                    0.00000000
	Adsorbate/Cation charge-bonddipole Fourier energy:                 0.00000000
	Adsorbate/Cation bondipole-bonddipole Real energy:                 0.00000000
	Adsorbate/Cation bondipole-bonddipole Fourier energy:              0.00000000

Cation/Cation energy:                                           0.00000000
	Cation/Cation VDW energy:                                       0.00000000
	Cation/Cation Coulomb energy:                                   0.00000000
	Cation/Cation charge-charge Real energy:                        0.00000000
	Cation/Cation charge-charge Fourier energy:                     0.00000000
	Cation/Cation charge-bonddipole Real energy:                    0.00000000
	Cation/Cation charge-bonddipole Fourier energy:                 0.00000000
	Cation/Cation bondipole-bonddipole Real energy:                 0.00000000
	Cation/Cation bondipole-bonddipole Fourier energy:              0.00000000

Polarization energy:
	Host polarization energy:                                     0.00000000
	Adsorbate polarization energy:                                0.00000000
	Cation polarization energy:                                   0.00000000
	Host back-polarization energy:                                     0.00000000
	Adsorbate back-polarization energy:                                0.00000000
	Cation back-polarization energy:                                   0.00000000

Tail-correction energy:                                       0.00000000

Distance constraints energy:                                  0.00000000
Angle constraints energy:                                     0.00000000
Dihedral constraints energy:                                  0.00000000
Inversion-bend constraints energy:                            0.00000000
Out-of-plane distance constraints energy:                     0.00000000
Exclusion constraints energy:                                 0.00000000

===================================================================
Total energy: -1588879.316880673403
	Total Van der Waals: -16236.462530
	Total Coulomb: -1567271.177025

	Total Polarization: 0.000000







+++++++++++++++++++++++++++++++++++++++++++++++++++++++++++++++++++++++++
Starting simulation
+++++++++++++++++++++++++++++++++++++++++++++++++++++++++++++++++++++++++

Total number of variables used in the minimization: 114
Number of cell-variables used in the minimization: 6
Total number of variables used for generalized coordinates in the minimization: 108
Total number of variables used for positions in the minimization: 108
Total number of variables used for orientation in the minimization: 0

Minimization initial volume:     839.5977956101 [A^3]
Minimization initial energy: -1588879.3168806725 [K]
Minimization initial strain:       0.0000000000 [-]
Minimization initial box:       9.4590000000      -0.6713541877      -0.6713541877[-]
                                0.0000000000       9.4351451793      -0.7208215219[-]
                                0.0000000000       0.0000000000       9.4075704030[-]

Beginning Baker minimization:
-----------------------------
Computing generalized Hessian matrix
Projecting constraints from generalized Hessian matrix
Computing eigenvalues and vectors
Shifting parameter: -124724.4280440531 Lowest eigenvalue:     623.4175772279
Iteration: 0 Energy: -1588879.3168806725 Volume:     839.5977956101 RMS gradient: 10982.2  Max gradient: 721797 Number of negative eigenvalues: 0 Number of zero eigenvalues: 3
      Box:       9.4590000000      -0.6713541877      -0.6713541877     Strain derivative:  721797.0890215271    -959.7612551589   -1036.1127188929
                 0.0000000000       9.4351451793      -0.7208215219                           -959.7612551589  721660.5061230774   -1112.4565251858
                 0.0000000000       0.0000000000       9.4075704030                          -1036.1127188929   -1112.4565251858  721490.0300977011
      Lengths:       9.4590000000       9.4590000000       9.4590000000, Angles:      94.0700000000      94.0700000000      94.0700000000

Computing generalized Hessian matrix
Projecting constraints from generalized Hessian matrix
Computing eigenvalues and vectors
Shifting parameter:  -24758.5222166736 Lowest eigenvalue:  -18731.8683525723
Iteration: 1 Energy: -1669931.5669705381 Volume:     705.2691086675 RMS gradient: 691.144  Max gradient: 44456.8 Number of negative eigenvalues: 8 Number of zero eigenvalues: 3
      Box:       8.9224245911      -0.6009118082      -0.6009049659     Strain derivative:   44456.8471023655   -2371.3010392258   -2555.0734203542
                 0.0000000000       8.9022612493      -0.6427171423                          -2371.3010392258   44183.7265378024   -2704.2219938964
                 0.0000000000       0.0000000000       8.8791550654                          -2555.0734203542   -2704.2219938964   43862.5485609095
      Lengths:       8.9224245911       8.9225192828       8.9226434860, Angles:      93.8608173276      93.8615683126      93.8616661856

Computing generalized Hessian matrix
Projecting constraints from generalized Hessian matrix
Computing eigenvalues and vectors
Shifting parameter:  -15951.8347012784 Lowest eigenvalue:  -15951.8337012784
Iteration: 2 Energy: -1675586.9659752727 Volume:     703.1885340488 RMS gradient: 637.93  Max gradient: 41108.2 Number of negative eigenvalues: 6 Number of zero eigenvalues: 3
      Box:       8.9142153090      -0.6080150163      -0.6079847511     Strain derivative:   41108.1574658956   -3363.1791728997   -3514.1488758210
                 0.0000000000       8.8935412830      -0.6508921359                          -3363.1791728997   40596.1768640651   -3670.6058590303
                 0.0000000000       0.0000000000       8.8698022146                          -3514.1488758210   -3670.6058590302   40010.8818747119
      Lengths:       8.9142153090       8.9143008033       8.9144095350, Angles:      93.9102532641      93.9107495618      93.9109923181

Computing generalized Hessian matrix
Projecting constraints from generalized Hessian matrix
Computing eigenvalues and vectors
Shifting parameter:  -19818.1909208271 Lowest eigenvalue:  -19814.9653913443
Iteration: 3 Energy: -1680791.7350082961 Volume:     697.8070111114 RMS gradient: 458.663  Max gradient: 29720 Number of negative eigenvalues: 5 Number of zero eigenvalues: 3
      Box:       8.8918801772      -0.6132367836      -0.6132210639     Strain derivative:   29719.9978216458   -3907.2365043836   -4046.2449735808
                 0.0000000000       8.8708316351      -0.6570430647                          -3907.2365043836   29109.6080743092   -4211.2100469567
                 0.0000000000       0.0000000000       8.8466203558                          -4046.2449735808   -4211.2100469567   28420.0442254499
      Lengths:       8.8918801772       8.8920027694       8.8921559468, Angles:      93.9541573821      93.9543714454      93.9545412052

Computing generalized Hessian matrix
Projecting constraints from generalized Hessian matrix
Computing eigenvalues and vectors
Shifting parameter:  -18113.4904991824 Lowest eigenvalue:  -15159.6035256969
Iteration: 4 Energy: -1681772.0677319106 Volume:     697.7042507706 RMS gradient: 534.552  Max gradient: 34532.4 Number of negative eigenvalues: 5 Number of zero eigenvalues: 3
      Box:       8.8914769133      -0.6135712275      -0.6135513965     Strain derivative:   34532.4395933013   -2101.0162282639   -2100.6220838471
                 0.0000000000       8.8703985216      -0.6574215412                          -2101.0162282639   34180.1477217862   -2125.7064524997
                 0.0000000000       0.0000000000       8.8461506651                          -2100.6220838471   -2125.7064524997   33810.5810173159
      Lengths:       8.8914769133       8.8915937595       8.8917394242, Angles:      93.9564609420      93.9566906278      93.9568836433

Computing generalized Hessian matrix
Projecting constraints from generalized Hessian matrix
Computing eigenvalues and vectors
Shifting parameter:  -16004.1577971950 Lowest eigenvalue:   -7227.8809039671
Iteration: 5 Energy: -1685126.6490243571 Volume:     694.4361404100 RMS gradient: 519.616  Max gradient: 33156 Number of negative eigenvalues: 6 Number of zero eigenvalues: 3
      Box:       8.8784349973      -0.6231188682      -0.6230803643     Strain derivative:   33155.9763739561    -733.2564750709    -629.4918565540
                 0.0000000000       8.8565921170      -0.6684269901                           -733.2564750709   32989.9597242819    -556.7457532285
                 0.0000000000       0.0000000000       8.8313938085                           -629.4918565540    -556.7457532286   32847.1299618754
      Lengths:       8.8784349973       8.8784852903       8.8785438211, Angles:      94.0240210105      94.0242234051      94.0244990704

Computing generalized Hessian matrix
Projecting constraints from generalized Hessian matrix
Computing eigenvalues and vectors
Shifting parameter:  -11937.9868658753 Lowest eigenvalue:   -1471.8189299883
Iteration: 6 Energy: -1689650.7868404030 Volume:     688.5737151144 RMS gradient: 426.004  Max gradient: 26830.1 Number of negative eigenvalues: 1 Number of zero eigenvalues: 3
      Box:       8.8549779914      -0.6415249156      -0.6414935050     Strain derivative:   26830.0681405777    -439.1044781707    -342.4963132710
                 0.0000000000       8.8317217561      -0.6897301941                           -439.1044781707   26720.6367791953    -264.6345327924
                 0.0000000000       0.0000000000       8.8047610882                           -342.4963132710    -264.6345327924   26639.0180316243
      Lengths:       8.8549779914       8.8549908749       8.8550019468, Angles:      94.1540577188      94.1543859679      94.1545949480

Computing generalized Hessian matrix
Projecting constraints from generalized Hessian matrix
Computing eigenvalues and vectors
Shifting parameter:   -6597.4783396149 Lowest eigenvalue:   -1185.5824121509
Iteration: 7 Energy: -1693873.9092200228 Volume:     680.7902268471 RMS gradient: 291.861  Max gradient: 17852.7 Number of negative eigenvalues: 1 Number of zero eigenvalues: 3
      Box:       8.8231439756      -0.6596670896      -0.6596896666     Strain derivative:   17852.7428586738    -796.1750929338    -806.2006758511
                 0.0000000000       8.7984487659      -0.7108796859                           -796.1750929338   17711.0426232431    -787.1456834609
                 0.0000000000       0.0000000000       8.7696818276                           -806.2006758511    -787.1456834609   17572.4372227503
      Lengths:       8.8231439756       8.8231435076       8.8231434162, Angles:      94.2871055523      94.2878979846      94.2877509178

Computing generalized Hessian matrix
Projecting constraints from generalized Hessian matrix
Computing eigenvalues and vectors
Shifting parameter:  -16439.8514040880 Lowest eigenvalue:    3489.6635893400
Iteration: 8 Energy: -1691840.9148400135 Volume:     672.0526590207 RMS gradient: 490.375  Max gradient: 12835.7 Number of negative eigenvalues: 0 Number of zero eigenvalues: 3
      Box:       8.7842297018      -0.6441527852      -0.6442471255     Strain derivative:    8564.1889409713   -3968.7830198298   -4292.0184219635
                 0.0000000000       8.7605739500      -0.6934523299                          -3968.7830198298    7961.3940071834   -4628.3115432023
                 0.0000000000       0.0000000000       8.7330723882                          -4292.0184219635   -4628.3115432023    7201.5893336144
      Lengths:       8.7842297018       8.7842238555       8.7842178838, Angles:      94.2065532540      94.2059309174      94.2053110498

Computing generalized Hessian matrix
Projecting constraints from generalized Hessian matrix
Computing eigenvalues and vectors
Shifting parameter:   -5689.2521571385 Lowest eigenvalue:   -1476.5836049789
Iteration: 9 Energy: -1694341.5584506816 Volume:     671.6685884147 RMS gradient: 226.739  Max gradient: 9138.15 Number of negative eigenvalues: 1 Number of zero eigenvalues: 3
      Box:       8.7796444959      -0.6111013199      -0.6112020418     Strain derivative:    6645.1975545797    6633.7548783481    7188.5330673994
                 0.0000000000       8.7586937442      -0.6555749349                           6633.7548783482    7756.0018349459    7710.5114481379
                 0.0000000000       0.0000000000       8.7345144244                           7188.5330673994    7710.5114481378    9138.1519648162
      Lengths:       8.7796444959       8.7799863854       8.7803808950, Angles:      93.9931709288      93.9915854412      93.9911062037

Computing generalized Hessian matrix
Projecting constraints from generalized Hessian matrix
Computing eigenvalues and vectors
Shifting parameter:  -40271.8136989595 Lowest eigenvalue:  -19222.9065268704
Iteration: 10 Energy: -1692775.3884952401 Volume:     667.2323487222 RMS gradient: 362.795  Max gradient: 12344.6 Number of negative eigenvalues: 3 Number of zero eigenvalues: 3
      Box:       8.7594989147      -0.5988457893      -0.5990154334     Strain derivative:    5058.3082614254     359.0536175396     433.4876848388
                 0.0000000000       8.7393080190      -0.6415850500                            359.0536175396    5244.1922915392     521.4385108798
                 0.0000000000       0.0000000000       8.7160714957                            433.4876848388     521.4385108799    5498.6319382608
      Lengths:       8.7594989147       8.7598014207       8.7601571438, Angles:      93.9216928995      93.9209181113      93.9199653784

Computing generalized Hessian matrix
Projecting constraints from generalized Hessian matrix
Computing eigenvalues and vectors
Shifting parameter:   -4393.3318503617 Lowest eigenvalue:    1704.1567038039
Iteration: 11 Energy: -1693603.3540305484 Volume:     670.7223167535 RMS gradient: 316.541  Max gradient: 14203.3 Number of negative eigenvalues: 0 Number of zero eigenvalues: 3
      Box:       8.7719651044      -0.5581127656      -0.5567894102     Strain derivative:   11996.9838976203    7620.5545541388    8463.9504680400
                 0.0000000000       8.7541978433      -0.5917793807                           7620.5545541388   12908.4466321858    9421.3774904438
                 0.0000000000       0.0000000000       8.7343281424                           8463.9504680400    9421.3774904438   14203.2986952688
      Lengths:       8.7719651044       8.7719706873       8.7720411184, Angles:      93.6284946316      93.6391921718      93.6478826827

Computing generalized Hessian matrix
Projecting constraints from generalized Hessian matrix
Computing eigenvalues and vectors
Shifting parameter:  -15126.7344782642 Lowest eigenvalue:    2223.5038884556
Iteration: 12 Energy: -1693736.1810351084 Volume:     666.6109845277 RMS gradient: 348.537  Max gradient: 13213 Number of negative eigenvalues: 0 Number of zero eigenvalues: 3
      Box:       8.7626925432      -0.6612034425      -0.6569254636     Strain derivative:    5280.4733626445   -7599.0894877418   -7682.5086231016
                 0.0000000000       8.7367801123      -0.7063207465                          -7599.0894877418    4156.9286857866   -8082.7547961833
                 0.0000000000       0.0000000000       8.7072995702                          -7682.5086231016   -8082.7547961833    2935.6228689993
      Lengths:       8.7626925432       8.7617644754       8.7605653851, Angles:      94.2860693628      94.3004553328      94.3279201421

Computing generalized Hessian matrix
Projecting constraints from generalized Hessian matrix
Computing eigenvalues and vectors
Shifting parameter:   -2085.9974389056 Lowest eigenvalue:    1812.7928253800
Iteration: 13 Energy: -1695061.3296415391 Volume:     669.7099350957 RMS gradient: 205.264  Max gradient: 10712.7 Number of negative eigenvalues: 0 Number of zero eigenvalues: 3
      Box:       8.7675206579      -0.6393311974      -0.6469573614     Strain derivative:    7983.1468168908    1409.6268903905    1228.7379293982
                 0.0000000000       8.7543519210      -0.7282579172                           1409.6268903905   10712.7380183892   -3058.8454094269
                 0.0000000000       0.0000000000       8.7254120001                           1228.7379293982   -3058.8454094269   10310.2830094664
      Lengths:       8.7675206579       8.7776660871       8.7796200369, Angles:      94.4369020907      94.2258725197      94.1769013578

Computing generalized Hessian matrix
Projecting constraints from generalized Hessian matrix
Computing eigenvalues and vectors
Shifting parameter: -130571.2434811966 Lowest eigenvalue: -127767.4435359519
Iteration: 14 Energy: -1694984.6448365219 Volume:     666.2452123077 RMS gradient: 207.504  Max gradient: 10843.9 Number of negative eigenvalues: 1 Number of zero eigenvalues: 3
      Box:       8.7597032208      -0.7337048860      -0.6989509487     Strain derivative:    1236.0642833796   -4252.6218610820   -5231.7186588785
                 0.0000000000       8.7444262432      -0.7986642123                          -4252.6218610821    2361.9206637641   -6831.7921546640
                 0.0000000000       0.0000000000       8.6978795610                          -5231.7186588785   -6831.7921546641    1542.5454185563
      Lengths:       8.7597032208       8.7751531715       8.7623915577, Angles:      94.8276204370      94.5751812927      94.7961930833

Computing generalized Hessian matrix
Projecting constraints from generalized Hessian matrix
Computing eigenvalues and vectors
Shifting parameter:   -4452.4207284029 Lowest eigenvalue:    3476.5951066681
Iteration: 15 Energy: -1693261.8542953252 Volume:     667.7535006767 RMS gradient: 357.103  Max gradient: 17029.1 Number of negative eigenvalues: 0 Number of zero eigenvalues: 3
      Box:       8.7601156099      -0.6780579550      -0.6638603626     Strain derivative:    8423.6848683657    3737.6698213515   -2375.0936496535
                 0.0000000000       8.7542280607      -0.7338851145                           3737.6698213515    9694.0360270146    2830.6714021324
                 0.0000000000       0.0000000000       8.7073996752                          -2375.0936496535    2830.6714021324   11852.3863034988
      Lengths:       8.7601156099       8.7804482534       8.7634529180, Angles:      94.4531447251      94.3445055976      94.4289967198

Computing generalized Hessian matrix
Projecting constraints from generalized Hessian matrix
Computing eigenvalues and vectors
Shifting parameter:    -534.5414725011 Lowest eigenvalue:    2262.7167088215
Iteration: 16 Energy: -1696154.4093066703 Volume:     667.7468934463 RMS gradient: 126.111  Max gradient: 6803.23 Number of negative eigenvalues: 0 Number of zero eigenvalues: 3
      Box:       8.7747476116      -0.7386942841      -0.7590855254     Strain derivative:    6244.9900883512   -1598.7850318103   -6803.2254473169
                 0.0000000000       8.7402775629      -0.8040232192                          -1598.7850318103    1454.5341838231   -2287.6101217679
                 0.0000000000       0.0000000000       8.7066686719                          -6803.2254473169   -2287.6101217679    5403.0548104630
      Lengths:       8.7747476116       8.7714378024       8.7766020495, Angles:      94.8185583643      94.9616929066      94.8309359749

Computing generalized Hessian matrix
Projecting constraints from generalized Hessian matrix
Computing eigenvalues and vectors
Shifting parameter: -103694.1828920351 Lowest eigenvalue: -100135.1157726812
Iteration: 17 Energy: -1695071.7182418255 Volume:     665.5017489930 RMS gradient: 202.157  Max gradient: 13578.2 Number of negative eigenvalues: 1 Number of zero eigenvalues: 3
      Box:       8.7606031396      -0.7611575930      -0.7203479234     Strain derivative:    1223.4471415010    -907.6413194347   -1214.6585163996
                 0.0000000000       8.7404720048      -0.8260789666                           -907.6413194347    -259.9057406612   -1551.9259325224
                 0.0000000000       0.0000000000       8.6912112895                          -1214.6585163996   -1551.9259325224      96.9615646158
      Lengths:       8.7606031396       8.7735518320       8.7600491590, Angles:      94.9801806788      94.7168173737      94.9770049524

Computing generalized Hessian matrix
Projecting constraints from generalized Hessian matrix
Computing eigenvalues and vectors
Shifting parameter:   -3952.8029527967 Lowest eigenvalue:    3433.7283756429
Iteration: 18 Energy: -1693648.1897946340 Volume:     667.2979085113 RMS gradient: 325.534  Max gradient: 14978.6 Number of negative eigenvalues: 0 Number of zero eigenvalues: 3
      Box:       8.7636823186      -0.7092257811      -0.6871262470     Strain derivative:    8460.6764678053    6642.9090871879    1674.6614901176
                 0.0000000000       8.7480271852      -0.7649073189                           6642.9090871879    6489.7908611620    7673.3900638936
                 0.0000000000       0.0000000000       8.7040827973                           1674.6614901176    7673.3900638936   10798.9410711807
      Lengths:       8.7636823186       8.7767295071       8.7646039858, Angles:      94.6260308999      94.4964809433      94.6349837436

Computing generalized Hessian matrix
Projecting constraints from generalized Hessian matrix
Computing eigenvalues and vectors
Shifting parameter:    -555.8125797303 Lowest eigenvalue:    1995.4617412825
Iteration: 19 Energy: -1696183.8156048758 Volume:     667.4403993413 RMS gradient: 120.819  Max gradient: 6618.72 Number of negative eigenvalues: 0 Number of zero eigenvalues: 3
      Box:       8.7749176011      -0.7588121600      -0.7816931483     Strain derivative:    5865.2906777081   -1069.7731217375   -6618.7205057049
                 0.0000000000       8.7405875641      -0.8278215237                          -1069.7731217375    1529.3024168695   -1892.3802419264
                 0.0000000000       0.0000000000       8.7021950930                          -6618.7205057049   -1892.3802419264    4905.2744967296
      Lengths:       8.7749176011       8.7734637892       8.7763621216, Angles:      94.9488917186      95.1099929234      94.9616802012

Computing generalized Hessian matrix
Projecting constraints from generalized Hessian matrix
Computing eigenvalues and vectors
Shifting parameter: -527472.4562220164 Lowest eigenvalue: -526836.6027453499
Iteration: 20 Energy: -1694577.1480607502 Volume:     665.4826548135 RMS gradient: 175.845  Max gradient: 12464.3 Number of negative eigenvalues: 1 Number of zero eigenvalues: 3
      Box:       8.7592895100      -0.7542942519      -0.7004385103     Strain derivative:    2398.3042036253    1141.3891099446    1680.1451173057
                 0.0000000000       8.7406372809      -0.8167990505                           1141.3891099446     561.8481620485     660.7966386407
                 0.0000000000       0.0000000000       8.6921009475                           1680.1451173057     660.7966386407    1945.8047500104
      Lengths:       8.7592895100       8.7731237250       8.7584469901, Angles:      94.9356708019      94.5870087184      94.9322569923

Computing generalized Hessian matrix
Projecting constraints from generalized Hessian matrix
Computing eigenvalues and vectors
Shifting parameter:   -8932.6491772673 Lowest eigenvalue:    4011.9752219416
Iteration: 21 Energy: -1690756.4647146752 Volume:     666.4987452212 RMS gradient: 572.51  Max gradient: 31253.2 Number of negative eigenvalues: 0 Number of zero eigenvalues: 3
      Box:       8.7459054693      -0.6878298318      -0.6755743364     Strain derivative:   13616.9696330263    7406.5065111445    7195.3305533504
                 0.0000000000       8.7692064704      -0.7380208528                           7406.5065111445    4336.7368153878    7759.4245525755
                 0.0000000000       0.0000000000       8.6902898442                           7195.3305533505    7759.4245525755   16900.5014559173
      Lengths:       8.7459054693       8.7961407445       8.7476975850, Angles:      94.4776411973      94.4292956709      94.4849237654

Computing generalized Hessian matrix
Projecting constraints from generalized Hessian matrix
Computing eigenvalues and vectors
Shifting parameter:  -19121.8349617496 Lowest eigenvalue:  -13961.3856078884
Iteration: 22 Energy: -1695308.1662493625 Volume:     668.1466255384 RMS gradient: 258.558  Max gradient: 14061.7 Number of negative eigenvalues: 1 Number of zero eigenvalues: 3
      Box:       8.7851558163      -0.7441076825      -0.6970779997     Strain derivative:   14061.6577999184    -904.7181166866   -1276.5333666445
                 0.0000000000       8.7208494998      -0.8082133893                           -904.7181166866    -368.1142412367   -2492.7495444906
                 0.0000000000       0.0000000000       8.7209444258                          -1276.5333666444   -2492.7495444906   13924.3401458196
      Lengths:       8.7851558163       8.7525374744       8.7860115126, Angles:      94.8708765723      94.5506027608      94.8769577869

Computing generalized Hessian matrix
Projecting constraints from generalized Hessian matrix
Computing eigenvalues and vectors
Shifting parameter: -141405.6438696643 Lowest eigenvalue: -139111.8140406773
Iteration: 23 Energy: -1694705.3816984587 Volume:     668.0477823046 RMS gradient: 343.371  Max gradient: 19510.3 Number of negative eigenvalues: 1 Number of zero eigenvalues: 3
      Box:       8.7725709684      -0.7845767702      -0.7086417103     Strain derivative:   19510.3185619107   -4107.5580263928   -7997.4184633153
                 0.0000000000       8.7495814939      -0.8495860023                          -4107.5580263928    4691.0066380513   -6152.3740108614
                 0.0000000000       0.0000000000       8.7034884200                          -7997.4184633152   -6152.3740108614   17001.1859306578
      Lengths:       8.7725709684       8.7846876454       8.7735215350, Angles:      95.1195692971      94.6328553915      95.1240199975

Computing generalized Hessian matrix
Projecting constraints from generalized Hessian matrix
Computing eigenvalues and vectors
Shifting parameter:  -87105.9561671960 Lowest eigenvalue:  -87090.7594494402
Iteration: 24 Energy: -1691519.0266333523 Volume:     666.9252814438 RMS gradient: 486.918  Max gradient: 28939.5 Number of negative eigenvalues: 1 Number of zero eigenvalues: 3
      Box:       8.7812244940      -0.8105055589      -0.7104795193     Strain derivative:   28939.4824702632   -1484.6498033258  -15202.7396068289
                 0.0000000000       8.7237919527      -0.8821467265                          -1484.6498033258    3685.8072129016   -5241.2015472303
                 0.0000000000       0.0000000000       8.7059626722                         -15202.7396068289   -5241.2015472303   25457.7337909488
      Lengths:       8.7812244940       8.7613620685       8.7793365378, Angles:      95.3110482991      94.6418134067      95.3079692554

Computing generalized Hessian matrix
Projecting constraints from generalized Hessian matrix
Computing eigenvalues and vectors
Shifting parameter:   -8184.4982702949 Lowest eigenvalue:    3884.2601813626
Iteration: 25 Energy: -1690493.5663091526 Volume:     666.7564960333 RMS gradient: 720.739  Max gradient: 42364.9 Number of negative eigenvalues: 0 Number of zero eigenvalues: 3
      Box:       8.7895895402      -0.7806631061      -0.7031464448     Strain derivative:   42364.8641991297   -2728.5653981350  -18395.6419415905
                 0.0000000000       8.7032278232      -0.8466887053                          -2728.5653981351    1664.2979038746   -8091.4421801734
                 0.0000000000       0.0000000000       8.7160218193                         -18395.6419415905   -8091.4421801734   36819.3373270851
      Lengths:       8.7895895402       8.7381696841       8.7852338068, Angles:      95.0969036646      94.5907100772      95.1256061805

Computing generalized Hessian matrix
Projecting constraints from generalized Hessian matrix
Computing eigenvalues and vectors
Shifting parameter:    -852.4237898252 Lowest eigenvalue:    3314.1631909608
Iteration: 26 Energy: -1695907.5849394009 Volume:     663.3306246232 RMS gradient: 118.513  Max gradient: 5674.12 Number of negative eigenvalues: 0 Number of zero eigenvalues: 3
      Box:       8.7427926493      -0.7623689257      -0.6086935449     Strain derivative:    3930.7994935226     -41.0311542347    5581.4216039359
                 0.0000000000       8.7368281230      -0.8153441901                            -41.0311542347    2021.7176307002     -92.5295859231
                 0.0000000000       0.0000000000       8.6841252329                           5581.4216039359     -92.5295859231    5034.6497795623
      Lengths:       8.7427926493       8.7700269116       8.7435304678, Angles:      94.9822118229      93.9919576349      94.9869542249

Computing generalized Hessian matrix
Projecting constraints from generalized Hessian matrix
Computing eigenvalues and vectors
Shifting parameter: -246265.2505121967 Lowest eigenvalue: -245076.2463099628
Iteration: 27 Energy: -1694782.5669484038 Volume:     665.0437205827 RMS gradient: 179.873  Max gradient: 9748.18 Number of negative eigenvalues: 1 Number of zero eigenvalues: 3
      Box:       8.7546498036      -0.7595436152      -0.6762444121     Strain derivative:    5297.6811135964    -282.0948089823   -4951.5392811868
                 0.0000000000       8.7418556823      -0.8193525701                           -282.0948089823     861.0912249278   -1070.8008416053
                 0.0000000000       0.0000000000       8.6897600841                          -4951.5392811868   -1070.8008416053    4452.7228859655
      Lengths:       8.7546498036       8.7747904404       8.7544603179, Angles:      94.9654455075      94.4302658697      94.9657222480

Computing generalized Hessian matrix
Projecting constraints from generalized Hessian matrix
Computing eigenvalues and vectors
Shifting parameter:   -6095.5441607334 Lowest eigenvalue:    3411.4429581549
Iteration: 28 Energy: -1692100.7914942522 Volume:     663.1882429471 RMS gradient: 475.575  Max gradient: 25030.1 Number of negative eigenvalues: 0 Number of zero eigenvalues: 3
      Box:       8.7647449595      -0.7896457055      -0.6227525255     Strain derivative:   17700.4651413685   -5225.3929269852    -204.9980266011
                 0.0000000000       8.6964692346      -0.8525015135                          -5225.3929269852   -1799.5810277678   -7687.3019286980
                 0.0000000000       0.0000000000       8.7007075276                           -204.9980266011   -7687.3019286979   16659.4575812017
      Lengths:       8.7647449595       8.7322458445       8.7645245746, Angles:      95.1891203295      94.0745145946      95.1882707922

Computing generalized Hessian matrix
Projecting constraints from generalized Hessian matrix
Computing eigenvalues and vectors
Shifting parameter:    -647.0790469632 Lowest eigenvalue:    3133.8441463299
Iteration: 29 Energy: -1696069.3471074761 Volume:     663.6662926796 RMS gradient: 119.947  Max gradient: 6569.65 Number of negative eigenvalues: 0 Number of zero eigenvalues: 3
      Box:       8.7428177757      -0.7575007361      -0.5840545414     Strain derivative:    5695.5922636173     381.0678394562    4177.5835064551
                 0.0000000000       8.7392253370      -0.8077578179                            381.0678394562    3631.7682813222     575.3055954804
                 0.0000000000       0.0000000000       8.6861114297                           4177.5835064550     575.3055954804    6569.6477609617
      Lengths:       8.7428177757       8.7719933228       8.7431186752, Angles:      94.9492946633      93.8303035894      94.9539160592

Computing generalized Hessian matrix
Projecting constraints from generalized Hessian matrix
Computing eigenvalues and vectors
Shifting parameter: -425524.0367028188 Lowest eigenvalue: -425136.5331236640
Iteration: 30 Energy: -1694532.7504445757 Volume:     665.3290909927 RMS gradient: 160.014  Max gradient: 8403.2 Number of negative eigenvalues: 1 Number of zero eigenvalues: 3
      Box:       8.7572759420      -0.7601734464      -0.6934118585     Strain derivative:    5821.8672101497    -850.2278162539   -7015.2511106582
                 0.0000000000       8.7407717503      -0.8224943957                           -850.2278162539     524.1390747306   -1913.9816170024
                 0.0000000000       0.0000000000       8.6919595974                          -7015.2511106582   -1913.9816170024    4983.0623896726
      Lengths:       8.7572759420       8.7737651245       8.7582805778, Angles:      94.9736584257      94.5409821926      94.9704325398

Computing generalized Hessian matrix
Projecting constraints from generalized Hessian matrix
Computing eigenvalues and vectors
Shifting parameter:   -7664.5270440410 Lowest eigenvalue:    2993.2134749221
Iteration: 31 Energy: -1691116.1324841350 Volume:     663.7906582611 RMS gradient: 572.787  Max gradient: 30622.2 Number of negative eigenvalues: 0 Number of zero eigenvalues: 3
      Box:       8.7745198856      -0.7955277061      -0.6421325259     Strain derivative:   20164.4632366317   -4986.8279341737   -3905.8672699844
                 0.0000000000       8.6860555748      -0.8629050558                          -4986.8279341737   -1976.2185111071   -7990.8575426090
                 0.0000000000       0.0000000000       8.7093384914                          -3905.8672699844   -7990.8575426090   19190.7316854635
      Lengths:       8.7745198856       8.7224094022       8.7755066107, Angles:      95.2353777335      94.1962700154      95.2329359925

Computing generalized Hessian matrix
Projecting constraints from generalized Hessian matrix
Computing eigenvalues and vectors
Shifting parameter:    -685.4622363705 Lowest eigenvalue:    3124.1617417656
Iteration: 32 Energy: -1696048.7163424105 Volume:     663.8524974915 RMS gradient: 136.481  Max gradient: 6913.12 Number of negative eigenvalues: 0 Number of zero eigenvalues: 3
      Box:       8.7439567374      -0.7615500882      -0.5807415432     Strain derivative:    5709.5743681151     233.0426084238    6646.1876368365
                 0.0000000000       8.7392014760      -0.8119749788                            233.0426084238    4651.0537238134     847.8534124376
                 0.0000000000       0.0000000000       8.6874404666                           6646.1876368365     847.8534124376    6913.1232336005
      Lengths:       8.7439567374       8.7723201591       8.7446089660, Angles:      94.9759988465      93.8078943548      94.9802787736

Computing generalized Hessian matrix
Projecting constraints from generalized Hessian matrix
Computing eigenvalues and vectors
Shifting parameter: -439338.8251252602 Lowest eigenvalue: -438999.1224770067
Iteration: 33 Energy: -1694521.0587511207 Volume:     665.2939821170 RMS gradient: 152.128  Max gradient: 7953.82 Number of negative eigenvalues: 2 Number of zero eigenvalues: 1
      Box:       8.7571523061      -0.7608828428      -0.6948608629     Strain derivative:    5498.3720583286    -682.5136379747   -6906.9488673271
                 0.0000000000       8.7409246174      -0.8233669047                           -682.5136379747     467.8724924801   -1722.8589347461
                 0.0000000000       0.0000000000       8.6914716339                          -6906.9488673271   -1722.8589347461    4644.6105271667
      Lengths:       8.7571523061       8.7739789074       8.7579931401, Angles:      94.9783093980      94.5506410062      94.9749611251

Computing generalized Hessian matrix
Projecting constraints from generalized Hessian matrix
Computing eigenvalues and vectors
Shifting parameter:   -7790.6467941388 Lowest eigenvalue:    2951.4371016540
Iteration: 34 Energy: -1691038.6548140044 Volume:     663.7791540451 RMS gradient: 577.469  Max gradient: 31004.6 Number of negative eigenvalues: 0 Number of zero eigenvalues: 3
      Box:       8.7748192291      -0.7961406662      -0.6443594020     Strain derivative:   19944.1350089378   -4787.0781350394   -4094.9219155887
                 0.0000000000       8.6857562288      -0.8637906675                          -4787.0781350394   -1917.5241181779   -7786.2063119055
                 0.0000000000       0.0000000000       8.7091905878                          -4094.9219155887   -7786.2063119055   18911.4280160423
      Lengths:       8.7748192291       8.7221672322       8.7756101811, Angles:      95.2394209746      94.2107988466      95.2371250808

Computing generalized Hessian matrix
Projecting constraints from generalized Hessian matrix
Computing eigenvalues and vectors
Shifting parameter:    -691.3880888920 Lowest eigenvalue:    3118.1545612029
Iteration: 35 Energy: -1696047.9164431319 Volume:     663.8777942434 RMS gradient: 138.394  Max gradient: 7013.95 Number of negative eigenvalues: 0 Number of zero eigenvalues: 3
      Box:       8.7441608398      -0.7627807355      -0.5815451103     Strain derivative:    5772.4512897639     188.2579624586    6797.5335450365
                 0.0000000000       8.7392594080      -0.8133568955                            188.2579624586    4738.1926493044     813.6583301112
                 0.0000000000       0.0000000000       8.6875111346                           6797.5335450364     813.6583301112    7013.9481702992
      Lengths:       8.7441608398       8.7724847934       8.7448609976, Angles:      94.9838555054      93.8130610328      94.9882533143

Computing generalized Hessian matrix
Projecting constraints from generalized Hessian matrix
Computing eigenvalues and vectors
Shifting parameter: -456785.5888736787 Lowest eigenvalue: -456476.1793938650
Iteration: 36 Energy: -1694506.3448112139 Volume:     665.3049110878 RMS gradient: 149.762  Max gradient: 7777.21 Number of negative eigenvalues: 2 Number of zero eigenvalues: 2
      Box:       8.7573192625      -0.7610359061      -0.6958192695     Strain derivative:    5482.2604623430    -620.9428382725   -6856.3506835846
                 0.0000000000       8.7408488489      -0.8236455920                           -620.9428382724     447.1683213590   -1659.8933600294
                 0.0000000000       0.0000000000       8.6915240477                          -6856.3506835846   -1659.8933600294    4644.3150277965
      Lengths:       8.7573192625       8.7739166995       8.7581474519, Angles:      94.9794078327      94.5568504067      94.9759998081

Computing generalized Hessian matrix
Projecting constraints from generalized Hessian matrix
Computing eigenvalues and vectors
Shifting parameter:   -7924.2189223272 Lowest eigenvalue:    2912.5844859842
Iteration: 37 Energy: -1690956.8557242602 Volume:     663.8056365658 RMS gradient: 584.3  Max gradient: 31587.9 Number of negative eigenvalues: 0 Number of zero eigenvalues: 3
      Box:       8.7752068202      -0.7973788420      -0.6462574455     Strain derivative:   20046.3605862048   -4555.6824697375   -4169.6002635970
                 0.0000000000       8.6856353374      -0.8653350035                          -4555.6824697375   -2000.2700305194   -7570.9004736618
                 0.0000000000       0.0000000000       8.7092745829                          -4169.6002635970   -7570.9004736618   19059.8767588627
      Lengths:       8.7752068202       8.7221599522       8.7759852503, Angles:      95.2474674799      94.2230439545      95.2452971779

Computing generalized Hessian matrix
Projecting constraints from generalized Hessian matrix
Computing eigenvalues and vectors
Shifting parameter:    -680.5181456023 Lowest eigenvalue:    3145.1083221418
Iteration: 38 Energy: -1696047.3633155867 Volume:     663.9206750145 RMS gradient: 140.311  Max gradient: 7223.66 Number of negative eigenvalues: 0 Number of zero eigenvalues: 3
      Box:       8.7445190705      -0.7612180494      -0.5803297488     Strain derivative:    5861.0603900645     415.3313682984    7199.1034501307
                 0.0000000000       8.7387766793      -0.8117166609                            415.3313682984    4622.3964760031    1064.8778690835
                 0.0000000000       0.0000000000       8.6881962626                           7199.1034501307    1064.8778690835    7223.6622994190
      Lengths:       8.7445190705       8.7718681459       8.7453085053, Angles:      94.9742854431      93.8048854340      94.9783590393

Computing generalized Hessian matrix
Projecting constraints from generalized Hessian matrix
Computing eigenvalues and vectors
Shifting parameter: -419038.4561159947 Lowest eigenvalue: -418666.0317644602
Iteration: 39 Energy: -1694545.6949243012 Volume:     665.2332195615 RMS gradient: 148.769  Max gradient: 7741.89 Number of negative eigenvalues: 1 Number of zero eigenvalues: 3
      Box:       8.7564843419      -0.7611837570      -0.6931439923     Strain derivative:    5260.7348129605    -719.1286126390   -6771.9130192825
                 0.0000000000       8.7414650347      -0.8233671373                           -719.1286126390     519.3738686944   -1715.5356921593
                 0.0000000000       0.0000000000       8.6908034512                          -6771.9130192825   -1715.5356921594    4371.0137631408
      Lengths:       8.7564843419       8.7745433878       8.7571939949, Angles:      94.9795999491      94.5397887272      94.9766126055

Computing generalized Hessian matrix
Projecting constraints from generalized Hessian matrix
Computing eigenvalues and vectors
Shifting parameter:   -7637.0822294569 Lowest eigenvalue:    2993.8547724498
Iteration: 40 Energy: -1691135.8505255550 Volume:     663.7109248304 RMS gradient: 567.698  Max gradient: 30244.6 Number of negative eigenvalues: 0 Number of zero eigenvalues: 3
      Box:       8.7739137189      -0.7948590496      -0.6416365900     Strain derivative:   19542.1890053675   -5085.2622939507   -3911.3748084144
                 0.0000000000       8.6864352298      -0.8619624392                          -5085.2622939507   -1657.5589752774   -8011.1864323292
                 0.0000000000       0.0000000000       8.7085133366                          -3911.3748084144   -8011.1864323292   18396.7775716015
      Lengths:       8.7739137189       8.7227265182       8.7745587521, Angles:      95.2304642273      94.1934770804      95.2283347394

Computing generalized Hessian matrix
Projecting constraints from generalized Hessian matrix
Computing eigenvalues and vectors
Shifting parameter:    -721.9012142385 Lowest eigenvalue:    3071.3067171117
Iteration: 41 Energy: -1696046.2710561191 Volume:     663.8343229958 RMS gradient: 137.088  Max gradient: 6801.62 Number of negative eigenvalues: 0 Number of zero eigenvalues: 3
      Box:       8.7437509879      -0.7650094633      -0.5834541271     Strain derivative:    5708.8857098069    -104.6505061016    6241.3891308509
                 0.0000000000       8.7399788835      -0.8156938960                           -104.6505061016    4891.0909855485     478.6660111997
                 0.0000000000       0.0000000000       8.6866343154                           6241.3891308509     478.6660111997    6801.6165737624
      Lengths:       8.7437509879       8.7733956005       8.7443347935, Angles:      94.9973221524      93.8258271862      95.0023446268

Computing generalized Hessian matrix
Projecting constraints from generalized Hessian matrix
Computing eigenvalues and vectors
Shifting parameter: -791774.8648351512 Lowest eigenvalue: -791637.8925414545
Iteration: 42 Energy: -1694427.7252736166 Volume:     665.4423230271 RMS gradient: 137.607  Max gradient: 7035.73 Number of negative eigenvalues: 2 Number of zero eigenvalues: 1
      Box:       8.7587644320      -0.7610373175      -0.7008952913     Strain derivative:    5905.3763106923    -501.8128467962   -7035.7331232373
                 0.0000000000       8.7400520593      -0.8243896912                           -501.8128467962     360.4966625979   -1614.6459636462
                 0.0000000000       0.0000000000       8.6926772205                          -7035.7331232373   -1614.6459636462    5132.5829429021
      Lengths:       8.7587644320       8.7731230356       8.7597665398, Angles:      94.9804208221      94.5893135748      94.9764603512

Computing generalized Hessian matrix
Projecting constraints from generalized Hessian matrix
Computing eigenvalues and vectors
Shifting parameter:  -10956.7636963257 Lowest eigenvalue:    2515.0929551759
Iteration: 43 Energy: -1689580.9680969378 Volume:     664.2173785651 RMS gradient: 661.309  Max gradient: 38361.3 Number of negative eigenvalues: 0 Number of zero eigenvalues: 3
      Box:       8.7755975426      -0.8169720302      -0.6666534546     Strain derivative:   20814.4007324886    -151.8693001807   -5199.8224422152
                 0.0000000000       8.6941016648      -0.8874205124                           -151.8693001807   -1735.4326776559   -2910.6009426466
                 0.0000000000       0.0000000000       8.7058027321                          -5199.8224422152   -2910.6009426466   20875.4389703320
      Lengths:       8.7755975426       8.7324021355       8.7762716004, Angles:      95.3687765828      94.3564351007      95.3682370532

Computing generalized Hessian matrix
Projecting constraints from generalized Hessian matrix
Computing eigenvalues and vectors
Shifting parameter:  -24410.8018619055 Lowest eigenvalue:  -19364.7087015621
Iteration: 44 Energy: -1695107.9741991917 Volume:     665.5334208577 RMS gradient: 285.132  Max gradient: 14536.6 Number of negative eigenvalues: 1 Number of zero eigenvalues: 3
      Box:       8.7525092975      -0.7078234363      -0.5647654524     Strain derivative:   10184.7953498341    7247.0204291800   10234.0733742414
                 0.0000000000       8.7352816433      -0.7539810291                           7247.0204291800    5344.6729954185    8611.8640960846
                 0.0000000000       0.0000000000       8.7048316493                          10234.0733742414    8611.8640960846   13964.6230652480
      Lengths:       8.7525092975       8.7639123344       8.7556576824, Angles:      94.6243556655      93.6983124348      94.6325790289

Computing generalized Hessian matrix
Projecting constraints from generalized Hessian matrix
Computing eigenvalues and vectors
Shifting parameter:  -79306.4640408537 Lowest eigenvalue:  -76219.8250473686
Iteration: 45 Energy: -1694741.2896342296 Volume:     666.5620642545 RMS gradient: 333.809  Max gradient: 18035.1 Number of negative eigenvalues: 1 Number of zero eigenvalues: 3
      Box:       8.7458230121      -0.7414637066      -0.5851685175     Strain derivative:   16081.2369507993    5696.2282864122     586.0624770113
                 0.0000000000       8.7679787594      -0.7843007548                           5696.2282864122   12217.7391127195    6794.6393269045
                 0.0000000000       0.0000000000       8.6924143446                            586.0624770114    6794.6393269045   18035.0651719285
      Lengths:       8.7458230121       8.7992738311       8.7473205615, Angles:      94.8016148691      93.8357739106      94.8337144233

Computing generalized Hessian matrix
Projecting constraints from generalized Hessian matrix
Computing eigenvalues and vectors
Shifting parameter: -109337.9294808601 Lowest eigenvalue: -108975.3802109267
Iteration: 46 Energy: -1692059.6014365398 Volume:     669.8484554571 RMS gradient: 480.031  Max gradient: 30104.1 Number of negative eigenvalues: 1 Number of zero eigenvalues: 3
      Box:       8.7641162544      -0.7075648333      -0.6007329056     Strain derivative:   28806.1824034887    5912.2539551492   -4830.9331057984
                 0.0000000000       8.7723473200      -0.7509750041                           5912.2539551492   10758.4530816068    5314.1011975682
                 0.0000000000       0.0000000000       8.7126970289                          -4830.9331057984    5314.1011975682   30104.0658011816
      Lengths:       8.7641162544       8.8008366362       8.7656108172, Angles:      94.5819935814      93.9297273472      94.6114115969

Computing generalized Hessian matrix
Projecting constraints from generalized Hessian matrix
Computing eigenvalues and vectors
Shifting parameter:   -8070.8947767149 Lowest eigenvalue:    4140.8795825824
Iteration: 47 Energy: -1690918.7544939253 Volume:     670.6860608865 RMS gradient: 697.262  Max gradient: 39531.3 Number of negative eigenvalues: 0 Number of zero eigenvalues: 3
      Box:       8.7823627728      -0.6764814408      -0.5840385178     Strain derivative:   37990.6697624330   11114.5064869808  -12508.7497721521
                 0.0000000000       8.7426635948      -0.7217282930                          11114.5064869808   16364.8452674804   10250.5098117736
                 0.0000000000       0.0000000000       8.7350247554                         -12508.7497721521   10250.5098117736   39531.2801282145
      Lengths:       8.7823627728       8.7687966034       8.7842273534, Angles:      94.4039480242      93.8122471156      94.4245616890

Computing generalized Hessian matrix
Projecting constraints from generalized Hessian matrix
Computing eigenvalues and vectors
Shifting parameter:   -2914.6136201527 Lowest eigenvalue:     -48.5273860615
Iteration: 48 Energy: -1695801.6712073251 Volume:     668.2418425867 RMS gradient: 194.341  Max gradient: 9943.2 Number of negative eigenvalues: 1 Number of zero eigenvalues: 3
      Box:       8.7668450859      -0.7290201468      -0.7324720111     Strain derivative:    6785.0594571115   -1477.9293017577   -9943.1951623019
                 0.0000000000       8.7586240993      -0.7872203728                          -1477.9293017577    6232.6274536751   -1966.7137882774
                 0.0000000000       0.0000000000       8.7027086752                          -9943.1951623019   -1966.7137882774    5833.4233679276
      Lengths:       8.7668450859       8.7889115645       8.7688864429, Angles:      94.7343621535      94.7915448578      94.7580208834

Computing generalized Hessian matrix
[...]
	Average              0.00000 [K] +/-            0.00000 [K]

Average Adsorbate Bond-Bend cross term energy:
=================================================
	Block[ 0]            0.00000 [K]
	Block[ 1]            0.00000 [K]
	Block[ 2]            0.00000 [K]
	Block[ 3]            0.00000 [K]
	Block[ 4]            0.00000 [K]
	------------------------------------------------------------------------------
	Average              0.00000 [K] +/-            0.00000 [K]

Average Adsorbate Bond-Torsion cross term energy:
=================================================
	Block[ 0]            0.00000 [K]
	Block[ 1]            0.00000 [K]
	Block[ 2]            0.00000 [K]
	Block[ 3]            0.00000 [K]
	Block[ 4]            0.00000 [K]
	------------------------------------------------------------------------------
	Average              0.00000 [K] +/-            0.00000 [K]

Average Adsorbate Bend-Torsion cross term energy:
=================================================
	Block[ 0]            0.00000 [K]
	Block[ 1]            0.00000 [K]
	Block[ 2]            0.00000 [K]
	Block[ 3]            0.00000 [K]
	Block[ 4]            0.00000 [K]
	------------------------------------------------------------------------------
	Average              0.00000 [K] +/-            0.00000 [K]

Average Adsorbate Intra Van der Waals energy:
=============================================
	Block[ 0]            0.00000 [K]
	Block[ 1]            0.00000 [K]
	Block[ 2]            0.00000 [K]
	Block[ 3]            0.00000 [K]
	Block[ 4]            0.00000 [K]
	------------------------------------------------------------------------------
	Average              0.00000 [K] +/-            0.00000 [K]

Average Adsorbate Intra charge-charge Coulomb energy:
=======================================
	Block[ 0]            0.00000 [K]
	Block[ 1]            0.00000 [K]
	Block[ 2]            0.00000 [K]
	Block[ 3]            0.00000 [K]
	Block[ 4]            0.00000 [K]
	------------------------------------------------------------------------------
	Average              0.00000 [K] +/-            0.00000 [K]

Average Adsorbate Intra charge-bonddipole Coulomb energy:
=======================================
	Block[ 0]            0.00000 [K]
	Block[ 1]            0.00000 [K]
	Block[ 2]            0.00000 [K]
	Block[ 3]            0.00000 [K]
	Block[ 4]            0.00000 [K]
	------------------------------------------------------------------------------
	Average              0.00000 [K] +/-            0.00000 [K]

Average Adsorbate Intra bonddipole-bonddipole Coulomb energy:
=======================================
	Block[ 0]            0.00000 [K]
	Block[ 1]            0.00000 [K]
	Block[ 2]            0.00000 [K]
	Block[ 3]            0.00000 [K]
	Block[ 4]            0.00000 [K]
	------------------------------------------------------------------------------
	Average              0.00000 [K] +/-            0.00000 [K]

Average Cation Bond stretch energy:
=================================
	Block[ 0]            0.00000 [K]
	Block[ 1]            0.00000 [K]
	Block[ 2]            0.00000 [K]
	Block[ 3]            0.00000 [K]
	Block[ 4]            0.00000 [K]
	------------------------------------------------------------------------------
	Average              0.00000 [K] +/-            0.00000 [K]

Average Cation UreyBradley stretch energy:
==========================================
	Block[ 0]            0.00000 [K]
	Block[ 1]            0.00000 [K]
	Block[ 2]            0.00000 [K]
	Block[ 3]            0.00000 [K]
	Block[ 4]            0.00000 [K]
	------------------------------------------------------------------------------
	Average              0.00000 [K] +/-            0.00000 [K]

Average Cation Bend angle energy:
=================================
	Block[ 0]            0.00000 [K]
	Block[ 1]            0.00000 [K]
	Block[ 2]            0.00000 [K]
	Block[ 3]            0.00000 [K]
	Block[ 4]            0.00000 [K]
	------------------------------------------------------------------------------
	Average              0.00000 [K] +/-            0.00000 [K]

Average Cation Bend angle inversion energy:
===========================================
	Block[ 0]            0.00000 [K]
	Block[ 1]            0.00000 [K]
	Block[ 2]            0.00000 [K]
	Block[ 3]            0.00000 [K]
	Block[ 4]            0.00000 [K]
	------------------------------------------------------------------------------
	Average              0.00000 [K] +/-            0.00000 [K]

Average Cation Torsion energy:
==============================
	Block[ 0]            0.00000 [K]
	Block[ 1]            0.00000 [K]
	Block[ 2]            0.00000 [K]
	Block[ 3]            0.00000 [K]
	Block[ 4]            0.00000 [K]
	------------------------------------------------------------------------------
	Average              0.00000 [K] +/-            0.00000 [K]

Average Cation Improper Torsion energy:
=======================================
	Block[ 0]            0.00000 [K]
	Block[ 1]            0.00000 [K]
	Block[ 2]            0.00000 [K]
	Block[ 3]            0.00000 [K]
	Block[ 4]            0.00000 [K]
	------------------------------------------------------------------------------
	Average              0.00000 [K] +/-            0.00000 [K]

Average Cation Bond-Bond cross term energy:
=================================================
	Block[ 0]            0.00000 [K]
	Block[ 1]            0.00000 [K]
	Block[ 2]            0.00000 [K]
	Block[ 3]            0.00000 [K]
	Block[ 4]            0.00000 [K]
	------------------------------------------------------------------------------
	Average              0.00000 [K] +/-            0.00000 [K]

Average Cation Bend-Bend cross term energy:
===========================================
	Block[ 0]            0.00000 [K]
	Block[ 1]            0.00000 [K]
	Block[ 2]            0.00000 [K]
	Block[ 3]            0.00000 [K]
	Block[ 4]            0.00000 [K]
	------------------------------------------------------------------------------
	Average              0.00000 [K] +/-            0.00000 [K]

Average Cation Bond-Bend cross term energy:
==============================================
	Block[ 0]            0.00000 [K]
	Block[ 1]            0.00000 [K]
	Block[ 2]            0.00000 [K]
	Block[ 3]            0.00000 [K]
	Block[ 4]            0.00000 [K]
	------------------------------------------------------------------------------
	Average              0.00000 [K] +/-            0.00000 [K]

Average Cation Bond-Torsion cross term energy:
==============================================
	Block[ 0]            0.00000 [K]
	Block[ 1]            0.00000 [K]
	Block[ 2]            0.00000 [K]
	Block[ 3]            0.00000 [K]
	Block[ 4]            0.00000 [K]
	------------------------------------------------------------------------------
	Average              0.00000 [K] +/-            0.00000 [K]

Average Cation Bend-Torsion cross term energy:
==============================================
	Block[ 0]            0.00000 [K]
	Block[ 1]            0.00000 [K]
	Block[ 2]            0.00000 [K]
	Block[ 3]            0.00000 [K]
	Block[ 4]            0.00000 [K]
	------------------------------------------------------------------------------
	Average              0.00000 [K] +/-            0.00000 [K]

Average Cation Intra Van der Waals energy:
==========================================
	Block[ 0]            0.00000 [K]
	Block[ 1]            0.00000 [K]
	Block[ 2]            0.00000 [K]
	Block[ 3]            0.00000 [K]
	Block[ 4]            0.00000 [K]
	------------------------------------------------------------------------------
	Average              0.00000 [K] +/-            0.00000 [K]

Average Cation Intra charge-charge Coulomb energy:
====================================
	Block[ 0]            0.00000 [K]
	Block[ 1]            0.00000 [K]
	Block[ 2]            0.00000 [K]
	Block[ 3]            0.00000 [K]
	Block[ 4]            0.00000 [K]
	------------------------------------------------------------------------------
	Average              0.00000 [K] +/-            0.00000 [K]

Average Cation Intra charge-bonddipole Coulomb energy:
====================================
	Block[ 0]            0.00000 [K]
	Block[ 1]            0.00000 [K]
	Block[ 2]            0.00000 [K]
	Block[ 3]            0.00000 [K]
	Block[ 4]            0.00000 [K]
	------------------------------------------------------------------------------
	Average              0.00000 [K] +/-            0.00000 [K]

Average Cation Intra bonddipole-bonddipole Coulomb energy:
====================================
	Block[ 0]            0.00000 [K]
	Block[ 1]            0.00000 [K]
	Block[ 2]            0.00000 [K]
	Block[ 3]            0.00000 [K]
	Block[ 4]            0.00000 [K]
	------------------------------------------------------------------------------
	Average              0.00000 [K] +/-            0.00000 [K]

Average Host-Host energy:
=========================
	Block[ 0] 0.00000            Van der Waals: 0.00000            Coulomb: 0.00000            [K]
	Block[ 1] 0.00000            Van der Waals: 0.00000            Coulomb: 0.00000            [K]
	Block[ 2] 0.00000            Van der Waals: 0.00000            Coulomb: 0.00000            [K]
	Block[ 3] 0.00000            Van der Waals: 0.00000            Coulomb: 0.00000            [K]
	Block[ 4] 0.00000            Van der Waals: 0.00000            Coulomb: 0.00000            [K]
	------------------------------------------------------------------------------
	Average   0.00000            Van der Waals: 0.000000           Coulomb: 0.00000            [K]
	      +/- 0.00000                       +/- 0.000000                +/- 0.00000            [K]

Average Adsorbate-Adsorbate energy:
===================================
	Block[ 0] 0.00000            Van der Waals: 0.00000            Coulomb: 0.00000            [K]
	Block[ 1] 0.00000            Van der Waals: 0.00000            Coulomb: 0.00000            [K]
	Block[ 2] 0.00000            Van der Waals: 0.00000            Coulomb: 0.00000            [K]
	Block[ 3] 0.00000            Van der Waals: 0.00000            Coulomb: 0.00000            [K]
	Block[ 4] 0.00000            Van der Waals: 0.00000            Coulomb: 0.00000            [K]
	------------------------------------------------------------------------------
	Average   0.00000            Van der Waals: 0.000000           Coulomb: 0.00000            [K]
	      +/- 0.00000                       +/- 0.000000                +/- 0.00000            [K]

Average Cation-Cation energy:
=============================
	Block[ 0] 0.00000            Van der Waals: 0.00000            Coulomb: 0.00000            [K]
	Block[ 1] 0.00000            Van der Waals: 0.00000            Coulomb: 0.00000            [K]
	Block[ 2] 0.00000            Van der Waals: 0.00000            Coulomb: 0.00000            [K]
	Block[ 3] 0.00000            Van der Waals: 0.00000            Coulomb: 0.00000            [K]
	Block[ 4] 0.00000            Van der Waals: 0.00000            Coulomb: 0.00000            [K]
	------------------------------------------------------------------------------
	Average   0.00000            Van der Waals: 0.000000           Coulomb: 0.00000            [K]
	      +/- 0.00000                       +/- 0.000000                +/- 0.00000            [K]

Average Host-Adsorbate energy:
==============================
	Block[ 0] 0.00000            Van der Waals: 0.00000            Coulomb: 0.00000            [K]
	Block[ 1] 0.00000            Van der Waals: 0.00000            Coulomb: 0.00000            [K]
	Block[ 2] 0.00000            Van der Waals: 0.00000            Coulomb: 0.00000            [K]
	Block[ 3] 0.00000            Van der Waals: 0.00000            Coulomb: 0.00000            [K]
	Block[ 4] 0.00000            Van der Waals: 0.00000            Coulomb: 0.00000            [K]
	------------------------------------------------------------------------------
	Average   0.00000            Van der Waals: 0.000000           Coulomb: 0.00000            [K]
	      +/- 0.00000                       +/- 0.000000                +/- 0.00000            [K]

Average Host-Cation energy:
===========================
	Block[ 0] 0.00000            Van der Waals: 0.00000            Coulomb: 0.00000            [K]
	Block[ 1] 0.00000            Van der Waals: 0.00000            Coulomb: 0.00000            [K]
	Block[ 2] 0.00000            Van der Waals: 0.00000            Coulomb: 0.00000            [K]
	Block[ 3] 0.00000            Van der Waals: 0.00000            Coulomb: 0.00000            [K]
	Block[ 4] 0.00000            Van der Waals: 0.00000            Coulomb: 0.00000            [K]
	------------------------------------------------------------------------------
	Average   0.00000            Van der Waals: 0.000000           Coulomb: 0.00000            [K]
	      +/- 0.00000                       +/- 0.000000                +/- 0.00000            [K]

Average Adsorbate-Cation energy:
================================
	Block[ 0] 0.00000            Van der Waals: 0.00000            Coulomb: 0.00000            [K]
	Block[ 1] 0.00000            Van der Waals: 0.00000            Coulomb: 0.00000            [K]
	Block[ 2] 0.00000            Van der Waals: 0.00000            Coulomb: 0.00000            [K]
	Block[ 3] 0.00000            Van der Waals: 0.00000            Coulomb: 0.00000            [K]
	Block[ 4] 0.00000            Van der Waals: 0.00000            Coulomb: 0.00000            [K]
	------------------------------------------------------------------------------
	Average   0.00000            Van der Waals: 0.000000           Coulomb: 0.00000            [K]
	      +/- 0.00000                       +/- 0.000000                +/- 0.00000            [K]

Host polarization energy:
=======================
	Block[ 0]            0.00000 [K]
	Block[ 1]            0.00000 [K]
	Block[ 2]            0.00000 [K]
	Block[ 3]            0.00000 [K]
	Block[ 4]            0.00000 [K]
	------------------------------------------------------------------------------
	Average              0.00000 [K] +/-            0.00000 [K]

Adsorbate polarization energy:
=======================
	Block[ 0]            0.00000 [K]
	Block[ 1]            0.00000 [K]
	Block[ 2]            0.00000 [K]
	Block[ 3]            0.00000 [K]
	Block[ 4]            0.00000 [K]
	------------------------------------------------------------------------------
	Average              0.00000 [K] +/-            0.00000 [K]

Cation polarization energy:
=======================
	Block[ 0]            0.00000 [K]
	Block[ 1]            0.00000 [K]
	Block[ 2]            0.00000 [K]
	Block[ 3]            0.00000 [K]
	Block[ 4]            0.00000 [K]
	------------------------------------------------------------------------------
	Average              0.00000 [K] +/-            0.00000 [K]

Host back-polarization energy:
=======================
	Block[ 0]            0.00000 [K]
	Block[ 1]            0.00000 [K]
	Block[ 2]            0.00000 [K]
	Block[ 3]            0.00000 [K]
	Block[ 4]            0.00000 [K]
	------------------------------------------------------------------------------
	Average              0.00000 [K] +/-            0.00000 [K]

Adsorbate back-polarization energy:
=======================
	Block[ 0]            0.00000 [K]
	Block[ 1]            0.00000 [K]
	Block[ 2]            0.00000 [K]
	Block[ 3]            0.00000 [K]
	Block[ 4]            0.00000 [K]
	------------------------------------------------------------------------------
	Average              0.00000 [K] +/-            0.00000 [K]

Cation back-polarization energy:
=======================
	Block[ 0]            0.00000 [K]
	Block[ 1]            0.00000 [K]
	Block[ 2]            0.00000 [K]
	Block[ 3]            0.00000 [K]
	Block[ 4]            0.00000 [K]
	------------------------------------------------------------------------------
	Average              0.00000 [K] +/-            0.00000 [K]

Tail-correction energy:
=======================
	Block[ 0]            0.00000 [K]
	Block[ 1]            0.00000 [K]
	Block[ 2]            0.00000 [K]
	Block[ 3]            0.00000 [K]
	Block[ 4]            0.00000 [K]
	------------------------------------------------------------------------------
	Average              0.00000 [K] +/-            0.00000 [K]

Distance-constraints energy:
=======================
	Block[ 0]            0.00000 [K]
	Block[ 1]            0.00000 [K]
	Block[ 2]            0.00000 [K]
	Block[ 3]            0.00000 [K]
	Block[ 4]            0.00000 [K]
	------------------------------------------------------------------------------
	Average              0.00000 [K] +/-            0.00000 [K]

Angle-constraints energy:
=======================
	Block[ 0]            0.00000 [K]
	Block[ 1]            0.00000 [K]
	Block[ 2]            0.00000 [K]
	Block[ 3]            0.00000 [K]
	Block[ 4]            0.00000 [K]
	------------------------------------------------------------------------------
	Average              0.00000 [K] +/-            0.00000 [K]

Dihedral-constraints energy:
=======================
	Block[ 0]            0.00000 [K]
	Block[ 1]            0.00000 [K]
	Block[ 2]            0.00000 [K]
	Block[ 3]            0.00000 [K]
	Block[ 4]            0.00000 [K]
	------------------------------------------------------------------------------
	Average              0.00000 [K] +/-            0.00000 [K]

Inversion-bend constraints energy:
=======================
	Block[ 0]            0.00000 [K]
	Block[ 1]            0.00000 [K]
	Block[ 2]            0.00000 [K]
	Block[ 3]            0.00000 [K]
	Block[ 4]            0.00000 [K]
	------------------------------------------------------------------------------
	Average              0.00000 [K] +/-            0.00000 [K]

Out-of-plane-distance constraints energy:
=======================
	Block[ 0]            0.00000 [K]
	Block[ 1]            0.00000 [K]
	Block[ 2]            0.00000 [K]
	Block[ 3]            0.00000 [K]
	Block[ 4]            0.00000 [K]
	------------------------------------------------------------------------------
	Average              0.00000 [K] +/-            0.00000 [K]

Exclusion-constraints energy:
=======================
	Block[ 0]            0.00000 [K]
	Block[ 1]            0.00000 [K]
	Block[ 2]            0.00000 [K]
	Block[ 3]            0.00000 [K]
	Block[ 4]            0.00000 [K]
	------------------------------------------------------------------------------
	Average              0.00000 [K] +/-            0.00000 [K]

Total energy:
=============
	Block[ 0]            0.00000 [K]
	Block[ 1]            0.00000 [K]
	Block[ 2]            0.00000 [K]
	Block[ 3]            0.00000 [K]
	Block[ 4]            0.00000 [K]
	------------------------------------------------------------------------------
	Average              0.00000 [K] +/-            0.00000 [K]

Number of molecules:
====================


Average Widom Rosenbluth factor:
================================

Average Widom chemical potential:
=================================

Average Widom Ideal-gas contribution:
=====================================

Average Widom excess contribution:
==================================

Average Gibbs Widom Rosenbluth factor:
======================================

Average Gibbs Widom chemical potential:
=======================================

Average Gibbs Widom Ideal-gas contribution:
===========================================

Average Gibbs Widom excess contribution:
===========================================

Average Henry coefficient:
==========================

Average adsorption energy <U_gh>_1-<U_h>_0 obtained from Widom-insertion:
(Note: the total heat of adsorption is dH=<U_gh>_1-<U_h>_0 - <U_g> - RT)
=========================================================================

Simulation finished,  0 warnings


Thu May 20 10:11:10 2021
Simulation finished on Thursday, May 20.
The end time was 10:11 AM.

