Compiler and run-time data
===========================================================================
RASPA 2.0.45
Compiled as a 64-bits application
Compiler: gcc Apple LLVM 12.0.5 (clang-1205.0.22.9)
Compile Date = May 18 2021, Compile Time = 12:54:12

Tue May 18 14:29:18 2021
Simulation started on Tuesday, May 18.
The start time was 02:29 PM.

Cpu data:    x86_64
Cpu Model:   MacPro7,1
Host name:   MacPro.local
OS release:  20.4.0
OS type:     Darwin
OS version:  20E232


Simulation
===========================================================================
Dimensions: 3
Random number seed: 1621340958
RASPA directory set to: /Users/dubbelda/RASPA/simulations/
String appended to output-files: 
Number of cycles: 25000
Number of initializing cycles: 1000
Number of equilibration cycles: 5000
Print every: 1000
Rectangular boundary condition applied
Timestep: 0.000500
Initialization Ensemble: NVT (constant number of particles N, constant volume V, constant average temperature T)
Production run ensemble: NVT (constant number of particles N, constant volume V, constant average temperature T)
	Degrees of freedom:                        3072
	Translational Degrees of freedom:          1536
	Rotational Degrees of freedom:             1536
	Degrees of freedom Framework:              0


Mutual consistent basic set of units:
======================================
Unit of temperature: Kelvin
Unit of length:      1e-10 [m]
Unit of time:        1e-12 [s]
Unit of mass:        1.66054e-27 [kg]
Unit of charge:      1.60218e-19 [C/particle]

Derived units and their conversion factors:
===========================================
Unit of energy:              1.66054e-23 [J]
Unit of force:               1.66054e-13 [N]
Unit of pressure:            1.66054e+07 [Pa]
Unit of velocity:            100 [m/s]
Unit of acceleration:        1e-08 [m^2/s]
Unit of diffusion:           1e-08 [m^2/s]
Unit of dipole moment:       1.60218e-29 [C.m]
Unit of electric potential:  0.000103643 [V]
Unit of electric field:      1.03643e+06 [V]
Unit of polarizability:      1.54587e-35 [-]
Unit of Coulomb potential:   167101.0800066561  [K]
Unit of dielectric constant: 0.0000154587       [s^2 C^2/(kg m^3)]
Unit of wave vectors:        5.3088374589       [cm^1]
Boltzmann constant:          0.8314464919       [-]

Internal conversion factors:
===========================================
Energy to Kelvin:                                    1.2027242847
FH correction factor                                 2.0211930949
Heat capacity conversion factor:                    10.0000088723
From Debye to internal units:                        4.8032067991
Isothermal compressibility conversion factor:        0.0000000602

Energy conversion factors:
===========================================
From mdyne/A to kcal/mol/A^2:           143.933
From mdyne/A to kj/mol/A^2:             602.214
From mdyne/A to K/A^2:                  72429.7
From mdyne A/rad^2 to kcal/mol/deg^2:   0.0438444


Properties computed
===========================================================================
Movies: no
Radial Distribution Function: yes
	RDF is written to file every 1000 cycles
	Upper limit of the rdf histogram: 12.000000 [A]
	Size of the RDF histogram: 500
Number of molecules GCMC histogram: no
Histogram of the molecule positions: no
Free energy profiles: no
Pore Size Distribution Function: no
End-to-end distance: no
Histogram of the energy of the system: no
Compute thermodynamic factors: no
Framework spacing histograms: no
Residence times histograms: no
Distance histograms: no
Bend Angle histograms: no
Dihedral angle histograms: no
Angle between planes histograms: no
Molecule properties: no
Infra-red spectra: no
Mean-squared displacement using modified order-N algorithm: no
Velocity-autocorrelation function modified order-N algorithm: no
Rotational velocity-autocorrelation function modified order-N algorithm: no
Molecular orientation-autocorrelation function modified order-N algorithm: no
Bond orientation-autocorrelation function modified order-N algorithm: no
Mean-squared displacement (conventional algorithm): no
Velocity-autocorrelation function (conventional algorithm): no
3D density grid for adsorbates: no
Compute cation an/or adsorption sites: no
dcTST snapshots: no
Compute pressure and stress: no


VTK
===========================================================================
VTK fractional-range position framework atoms: [-0.001000,1.001000] [-0.001000,1.001000] [-0.001000,1.001000]
VTK fractional-range position framework bonds: [-0.151000,1.151000] [-0.151000,1.151000] [-0.151000,1.151000]
VTK fractional-range com-position adsorbate molecules: [-0.101000,1.101000] [-0.101000,1.101000] [-0.101000,1.101000]
VTK fractional-range com-position cation molecules: [-0.101000,1.101000] [-0.101000,1.101000] [-0.101000,1.101000]
	3D free energy grid made for the full simulation-cell


Thermo/Baro-stat NHC parameters
===========================================================================
External temperature: 298 [K]
Beta: 0.00403598 [energy unit]
External Pressure: 0 [Pa]


Thermostat chain-length: 3
Timescale parameter for thermostat: 0.150000 [ps]
Barostat chain-length:   3
Timescale parameter for barostat:   0.150000 [ps]

Number of Yoshida-Suzuki decomposition steps: 5
Number of respa steps: 5


Method and settings for electrostatics
===============================================================================
Dielectric constant of the medium : 1.000000
Charge from charge-equilibration: no
Ewald summation is used (exact solution of a periodic system)
Relative precision                : 1e-06
Alpha convergence parameter       : 0.265058
kvec (x,y,z)                      : 7 7 7


CFC-RXMC parameters
===========================================================================
Number of reactions: 0


Rattle parameters
===========================================================================
Distance constraint type: r^2-r^2_0
Bend angle constraint type: theta-theta_0
Dihedral angle constraint type: phi-phi_0
Inversion-bend angle constraint type: chi-chi_0
Out-of-plane distance constraint type: r-r_0


Spectra parameters
===========================================================================
Compute normal modes: no


Minimization parameters
===========================================================================
Generalized coordinates are: Cartesian center-of-mass, elements of the orientational matrix p1,p2,p3 and strain
Potential derivatives are evaluated: analytically
Translation of the system is removed from the generalized Hessian: no
Rotation of the system is removed from the generalized Hessian: no
Maximum step-length: 0.3
Convergence factor: 1
Maximum number of minimization steps: 10000
Use gradients in the line-minimizations: yes
RMS gradient tolerance: 1e-06
Maximum gradient tolerance: 1e-06

Distance constraints: 0
Angle constraints: 0
Dihedral constraints: 0

Improper dihedral constraints: 0

Inversion-bend constraints: 0

Out-of-plane constraints: 0

Harmonic distance constraints: 0
Harmonic angle constraints: 0
Harmonic dihedral constraints: 0

Dihedral mid-point measurements: 0

All framework atoms are fixed

Fixed adsorbate atoms:  
Fixed adsorbate groups (center-of-mass):  
Fixed adsorbate groups (orientation):  

Fixed cation atoms:  
Fixed cation groups (center-of-mass):  
Fixed cation groups (orientation):  


dcTST parameters
===========================================================================
Free energy profiles computed: no
Free energy profiles written every 5000 cycles
Free energy mapping: mapped to a,b,c-coordinates
BarrierPosition:       0.0000000000       0.0000000000       0.0000000000
BarrierNormal:         0.0000000000       0.0000000000       0.0000000000
Start with a molecule on top of the barrier: no
Maximum distance to barrier (e.g. distance to minumum free energy):       0.0000000000 [A]
Maximum trajectory time:      10.0000000000 [ps]
Each configuration is used with 5 different initial velocities


Cbmc parameters
===========================================================================
Biasing method: using only the VDW part
Number of trial positions:                                       10
Number of trial positions (reinsertion):                         10
Number of trial positions (partial reinsertion):                 10
Number of trial positions (identity-change):                     10
Number of trial positions (Gibbs particle transfer):             10
Number of trial positions (insertion/deletion):                  10
Number of trial positions (Widom insertion):                     10
Number of trial positions coupled Torsion-selection:             100
Number of trial positions first bead:                            10
Number of trial positions first bead (reinsertion):              10
Number of trial positions first bead (partial reinsertion):      10
Number of trial positions first bead (identity-change):          10
Number of trial positions first bead (Gibbs particle transfer):  10
Number of trial positions first bead (insertion/deletion):       10
Number of trial positions first bead (Widom insertion):          10
Number of trial moves per open bead:                             150
Target acceptance ratio small-mc scheme:                         0.400000
Energy overlap criteria:                                         1e+07
Minimal Rosenbluth factor:                                       1e-150


Pseudo atoms: 4
===========================================================================
Pseudo Atom[   0] Name UNIT     Oxidation:          Element: H    pdb-name: H    Scat. Types:   1   1 Mass=1.000000000  B-factor:0.000   
                 Charge=1.000000000          Polarization=0.000000000  [A^3] (considered a charged atom and no polarization)  Interactions: yes
                 Anisotropic factor:    0.000 [-] (Absolute), Radius:    1.000 [A], Framework-atom:  no
Pseudo Atom[   1] Name Ow       Oxidation: +0       Element: O    pdb-name: O    Scat. Types:   9   8 Mass=15.999600000 B-factor:1.000   
                 Charge=0.000000000          Polarization=0.000000000  [A^3] (considered a chargeless atom and no polarization)  Interactions: yes
                 Anisotropic factor:    0.000 [-] (Absolute), Radius:    0.500 [A], Framework-atom:  no
Pseudo Atom[   2] Name Hw       Oxidation: +0       Element: H    pdb-name: H    Scat. Types:   1   1 Mass=1.000800000  B-factor:1.000   
                 Charge=0.241000000          Polarization=0.000000000  [A^3] (considered a charged atom and no polarization)  Interactions: yes
                 Anisotropic factor:    0.000 [-] (Absolute), Radius:    1.000 [A], Framework-atom:  no
Pseudo Atom[   3] Name Lw       Oxidation: +0       Element: -    pdb-name: L    Scat. Types:   0   3 Mass=0.000000000  B-factor:1.000   
                 Charge=-0.241000000         Polarization=0.000000000  [A^3] (considered a charged atom and no polarization)  Interactions: yes
                 Anisotropic factor:    0.000 [-] (Absolute), Radius:    1.000 [A], Framework-atom:  no


Forcefield: Local
===========================================================================
Minimal distance: 1
CutOff VDW : 12.000000 (144.000000)
CutOff VDW switching on: 10.800000 (116.640000)
CutOff charge-charge : 12.000000 (144.000000)
CutOff charge-charge switching on: 7.800000 (60.840000)
CutOff charge-bonddipole : 12.000000 (144.000000)
CutOff charge-bondipole switching on: 8.400000 (70.560000)
CutOff bonddipole-bonddipole : 12.000000 (144.000000)
CutOff bonddipole-bondipole switching on: 9.000000 (81.000000)
Polarization is neglected
All potentials are shifted to zero at the Cutoff

General mixing rule: Jorgensen mixing rules are used FIRST for cross terms
0 cross terms are overwritten using the individual mixing rules from the file 'force_field_mixing_rules.def'
and then 0 terms are overwritten using the specific interactions from the file 'force_field.def'

The force field and all the interactions:
     Ow -      Ow [LENNARD_JONES] p_0/k_B:  89.63300 [K], p_1: 3.09700 [A], shift/k_B:  -0.10591545 [K], tailcorrection: no
     Ow -      Hw [ZERO_POTENTIAL]
     Ow -      Lw [ZERO_POTENTIAL]
     Hw -      Hw [ZERO_POTENTIAL]
     Hw -      Lw [ZERO_POTENTIAL]
     Lw -      Lw [ZERO_POTENTIAL]


MoleculeDefinitions:
===========================================================================
Component 0 [Tip5p] (Adsorbate molecule)

	MoleculeDefinitions: Local
	Component contains (at least some) atoms which are charged
	Component contains no atoms with point dipoles (polarization)
	Component has a net charge of 0.000000

	Ideal chain Rosenbluth weight: 1
	Ideal chain total energy: 0.000000

	Critical temparure [K]: 304.128200
	Critical pressure [Pa]: 7377300.000000
	Acentric factor [-]: 0.223940

	RXMC partition factor ln(q/V) [ln(A^(-3))]:       0.0000000000

	Vapour=stable, Liquid=metastable

	MolFraction:           1.0000000000 [-]
	Compressibility:       0.0000000000 [-]

	Density of the bulk fluid phase:       0.0000000000 [kg/m^3]


	Amount of excess molecules:       0.0000000000 [-]

	Conversion factor molecules/unit cell -> mol/kg:                inf [-]
	Conversion factor molecules/unit cell -> mg/g:                inf [-]
	Conversion factor molecules/unit cell -> cm^3 STP/gr:                inf [-]
	Conversion factor molecules/unit cell -> cm^3 STP/cm^3:       2.4312955074 [-]
	Conversion factor mol/kg -> cm^3 STP/gr:      22.4139757476 [-]
	Conversion factor mol/kg -> cm^3 STP/cm^3:       0.0000000000 [-]

	Partial pressure: -16605402.00000000000000 [Pa]
	                    -124540.51499999999942 [Torr]
	                       -166.05402000000001 [bar]
	                       -163.88257586972614 [atm]

	Fugacity coefficient:      -1.0000000000 [-]

	Partial fugacity:  16605402.00000000000000 [Pa]
	                     124540.51499999999942 [Torr]
	                        166.05402000000001 [bar]
	                        163.88257586972614 [atm]

	Molecule contains 5 number of atoms
		atom:    0  is of type:    1 [        Ow] (group: 0)
		atom:    1  is of type:    2 [        Hw] (group: 0)
		atom:    2  is of type:    2 [        Hw] (group: 0)
		atom:    3  is of type:    3 [        Lw] (group: 0)
		atom:    4  is of type:    3 [        Lw] (group: 0)

	Molecule contains 0 chirality centers

	Molecule contains 1 number of groups

		group: 0 containing: 5 elements
		-------------------------------------------------
		the group is rigid and nonlinear
		Mass: 18.001200 [a.u.]
		Mass: 1.952632 [kg/m^3]

		Rotational Degrees of freedom: 3
		Diagonalized inertia vector:       1.7575330830
		                                   1.1468643540
		                                   0.6106687291
		number of atoms: 5
			element: 0 atom: 0 [        Ow] Charge:  0.000000 Anisotropy: 0.000000 Position:  0.000000  0.065146  0.000000 Connectivity: 4 (1 2 3 4 )
			element: 1 atom: 1 [        Hw] Charge:  0.241000 Anisotropy: 0.000000 Position:  0.000000 -0.520737 -0.756950 Connectivity: 1 (0 )
			element: 2 atom: 2 [        Hw] Charge:  0.241000 Anisotropy: 0.000000 Position:  0.000000 -0.520737  0.756950 Connectivity: 1 (0 )
			element: 3 atom: 3 [        Lw] Charge: -0.241000 Anisotropy: 0.000000 Position: -0.571543  0.469297  0.000000 Connectivity: 1 (0 )
			element: 4 atom: 4 [        Lw] Charge: -0.241000 Anisotropy: 0.000000 Position:  0.571543  0.469297  0.000000 Connectivity: 1 (0 )
		number of permanent dipoles: 0
		number of polarizabilities: 0

		Dipole:           2.2920719009 [D]
		Quadrupole:      -1.4784799135      -0.1672211827       1.6457010962 [D Angstrom]
		Quadrupole tensor [D Angstrom]
				      -1.4784799135       0.0000000000       0.0000000000
				       0.0000000000      -0.1672211827       0.0000000000
				       0.0000000000       0.0000000000       1.6457010962

	Starting bead for growth               : 0

	Degrees of freedom                     : 0
	Translational degrees of freedom       : 0
	Rotational degrees of freedom          : 0
	Vibrational degrees of freedom         : 0
	Constraint degrees of freedom          : 0

	Number of atoms                        : 5

	Number of constraint bonds             : 0
	Number of constraint bends             : 0
	Number of constraint inversion bends   : 0
	Number of constraint torsions          : 0
	Number of constraint improper torsions : 0
	Number of constraint improper torsions : 0

	Number of bonds                        : 4
	Number of Urey-Bradleys                : 0
	Number of bends                        : 0
	Number of inversion bends              : 0
	Number of torsions                     : 0
	Number of improper torsions            : 0
	Number of improper torsions            : 0

	Number of bond/bond cross terms        : 0
	Number of bond/bend cross terms        : 0
	Number of bend/bend cross terms        : 0
	Number of stretch/torsion cross terms  : 0
	Number of bend/torsion cross terms     : 0

	Number of charges                      : 4
	Number of bond-dipoles                 : 0

	Number of intra Van der Waals                             : 0
	Number of intra charge-charge Coulomb                     : 0
	Number of intra charge-bonddipole Coulomb                 : 0
	Number of intra bonddipole-bonddipole Coulomb             : 0

	Number of excluded intra charge-charge Coulomb                     : 6
	Number of excluded intra charge-bonddipole Coulomb                 : 0
	Number of excluded intra bonddipole-bonddipole Coulomb             : 0

	Number of cbmc-config moves                               : 0

	Particle Moves:             
		ProbabilityTranslationMove:                  25.000000
			TranslationDirection:      XYZ
		Percentage of random translation moves:            0.000000
		Percentage of rotation moves:                      25.000000
		Percentage of random rotation moves:               0.000000
		Percentage of partial reinsertion moves:           0.000000
		Percentage of reinsertion moves:                   50.000000
		Percentage of reinsertion-in-place moves:          0.000000
		Percentage of reinsertion-in-plane moves:          0.000000
		Percentage of identity-change moves:               0.000000
		Percentage of swap (insert/delete) moves:          0.000000
		Percentage of CF swap lambda moves:                0.000000
		Percentage of CB/CFMC swap lambda moves:           0.000000
		Percentage of Widom insertion moves:               0.000000
		Percentage of CF-Widom insertion moves:            0.000000
		Percentage of Gibbs Widom insertion moves:         0.000000
		Percentage of surface-area moves:                  0.000000
		Percentage of Gibbs particle-transfer moves:       0.000000
		Percentage of Gibbs identity-change moves:         0.000000
		Percentage of CF Gibbs lambda-transfer moves:      0.000000
		Percentage of CB/CFMC Gibbs lambda-transfer moves: 0.000000
		Percentage of exchange frac./int. particle moves:  0.000000
		Percentage of fractional mol. to other box moves:  0.000000
		Percentage of lambda-change moves:                 0.000000
		Percentage of fractional to integer moves:         0.000000

	System Moves:
		Percentage of parallel-tempering moves:            0.000000
		Percentage of hyper-parallel-tempering moves:      0.000000
		Percentage of parallel-mol-fraction moves:         0.000000
			   Component A: 0 B: 1
		Percentage of chiral inversion moves:              0.000000
		Percentage of Hybrid-NVE moves:                    0.000000
		Percentage of Hybrid-NPH moves:                    0.000000
		Percentage of Hybrid-NPHPR moves:                  0.000000
		Percentage of volume-change moves:                 0.000000
		Percentage of box-shape-change moves:              0.000000
		Percentage of Gibbs volume-change moves:           0.000000
		Percentage of framework-change moves:              0.000000
		Percentage of framework-shift moves:               0.000000
		Percentage of reactive MC moves:                   0.000000

	Moves are restricted: No
	No biased sampling used for this component

	Number of Bonds: 4
	--------------------------------------------
	Bond interaction 0: A=0 B=1 Type:RIGID_BOND
		r_0=0.9572000000       [A]
	Bond interaction 1: A=0 B=2 Type:RIGID_BOND
		r_0=0.9572000000       [A]
	Bond interaction 2: A=0 B=3 Type:RIGID_BOND
		r_0=0.7000000000       [A]
	Bond interaction 3: A=0 B=4 Type:RIGID_BOND
		r_0=0.7000000000       [A]


	number of identity-config changes: 1
	--------------------------------------------
	nr fixed 1: 0 

	Number of pockets blocked in a unitcell: 0
		Pockets are NOT blocked for this component



System Properties
===========================================================================
Unit cell size: 24.830000 24.830000 24.830000
Cell angles (radians)  alpha: 1.570796 beta: 1.570796 gamma: 1.570796
Cell angles (degrees)  alpha: 90.000000 beta: 90.000000 gamma: 90.000000
Number of unitcells [a]: 1
Number of unitcells [b]: 1
Number of unitcells [c]: 1

RECTANGULAR Boundary conditions: alpha=beta=gamma=90 degrees

Cartesian axis A is collinear with crystallographic axis a
Cartesian axis B is collinear with (axb)xA
Cartesian axis C is collinear with (axb)

lengths of cell vectors:
 24.83000  24.83000  24.83000
cosines of cell angles:
  0.00000   0.00000   0.00000
perpendicular cell widths:
 24.83000  24.83000  24.83000
volume of the cell: 15308.412586999997 (A^3)

Orthogonalization matrix Box
Transforms fractional coordinates abc into orthonormal Cartesian coordinates xyz
Deorthogonalization matrix InverseBox
Transforms orthonormal Cartesian coordinates xyz into fractional coordinates xyz

Box[0]:
	   24.830000000000     0.000000000000     0.000000000000
	    0.000000000000    24.830000000000     0.000000000000
	    0.000000000000     0.000000000000    24.830000000000

Inverse box[0]:
	    0.040273862263     0.000000000000     0.000000000000
	    0.000000000000     0.040273862263     0.000000000000
	    0.000000000000     0.000000000000     0.040273862263


Unitcell box[0]:
	   24.830000000000     0.000000000000     0.000000000000
	    0.000000000000    24.830000000000     0.000000000000
	    0.000000000000     0.000000000000    24.830000000000

Unitcell inverse box[0]:
	    0.040273862263    -0.000000000000    -0.000000000000
	    0.000000000000     0.040273862263    -0.000000000000
	    0.000000000000     0.000000000000     0.040273862263

lengths of cell vectors (inverse box):
  0.04027   0.04027   0.04027
cosines of cell angles (inverse box):
 -0.00000  -0.00000  -0.00000
perpendicular cell widths (inverse):
  0.04027   0.04027   0.04027
volume of the cell: 15308.412586999997 (A^3)

No replicas are used
Framework is simulated as 'rigid'
Number of framework atoms: 0
Number of framework atoms in the unit cell: 0
Framework Mass:     0.000000000000 [g/mol]
Framework Density:     0.000000000000 [kg/m^3]                inf [cm^3/g]
Helium void fraction:    0.00000000
Available pore volume:    0.00000000 [A^3]           nan [cm^3/g]
Conversion factor from molecule/unit cell -> kmol/m^3: 0.108472, kmol/m^3 accesible pore volume: inf

Number Of Frameworks (per system): 0
----------------------------------------------------------------------

Current Atom Status
===========================================================================
Number of framework atoms        : 0
Number of cations molecules      : 0
Number of adsorbate molecules    : 512
Component    0 :  512 molecules
Pseudo Atoms    0 [    UNIT]:    0 atoms
Pseudo Atoms    1 [      Ow]:  512 atoms
Pseudo Atoms    2 [      Hw]: 1024 atoms
Pseudo Atoms    3 [      Lw]: 1024 atoms


Current (initial full energy) Energy Status
===========================================================================

Internal energy:
Host stretch energy:                                            0.00000000
Host UreyBradley energy:                                        0.00000000
Host bend energy:                                               0.00000000
Host inversion-bend energy:                                     0.00000000
Host torsion energy:                                            0.00000000
Host improper torsion energy:                                   0.00000000
Host out-of-plane energy:                                       0.00000000
Host stretch/stretch energy:                                    0.00000000
Host bend/bend energy:                                          0.00000000
Host stretch/bend energy:                                       0.00000000
Host stretch/torsion energy:                                    0.00000000
Host bend/torsion energy:                                       0.00000000

Adsorbate stretch energy:                                       0.00000000
Adsorbate UreyBradley energy:                                   0.00000000
Adsorbate bend energy:                                          0.00000000
Adsorbate inversion-bend energy:                                0.00000000
Adsorbate torsion energy:                                       0.00000000
Adsorbate improper torsion energy:                              0.00000000
Adsorbate out-of-plane energy:                                  0.00000000
Adsorbate stretch/stretch energy:                               0.00000000
Adsorbate bend/bend energy:                                     0.00000000
Adsorbate stretch/bend energy:                                  0.00000000
Adsorbate stretch/torsion energy:                               0.00000000
Adsorbate bend/torsion energy:                                  0.00000000
Adsorbate intra VDW energy:                                     0.00000000
Adsorbate intra charge-charge Coulomb energy:                   0.00000000
Adsorbate intra charge-bonddipole Coulomb energy:               0.00000000
Adsorbate intra bonddipole-bonddipole Coulomb energy:           0.00000000

Cation stretch energy:                                          0.00000000
Cation UreyBradley energy:                                      0.00000000
Cation bend energy:                                             0.00000000
Cation inversion-bend energy:                                   0.00000000
Cation torsion energy:                                          0.00000000
Cation improper torsion energy:                                 0.00000000
Cation out-of-plane energy:                                     0.00000000
Cation stretch/stretch energy:                                  0.00000000
Cation bend/bend energy:                                        0.00000000
Cation stretch/bend energy:                                     0.00000000
Cation stretch/torsion energy:                                  0.00000000
Cation bend/torsion energy:                                     0.00000000
Cation intra VDW energy:                                        0.00000000
Cation intra charge-charge Coulomb energy:                      0.00000000
Cation intra charge-bonddipole Coulomb energy:                  0.00000000
Cation intra bonddipole-bonddipole Coulomb energy:              0.00000000

Host/Host energy:                                             0.00000000
	Host/Host VDW energy:                                         0.00000000
	Host/Host Coulomb energy:                                     0.00000000
	Host/Host charge-charge Real energy:                          0.00000000
	Host/Host charge-charge Fourier energy:                       0.00000000
	Host/Host charge-bonddipole Real energy:                      0.00000000
	Host/Host charge-bonddipole Fourier energy:                   0.00000000
	Host/Host bondipole-bonddipole Real energy:                   0.00000000
	Host/Host bondipole-bonddipole Fourier energy:                0.00000000

Host/Adsorbate energy:                                        0.00000000
	Host/Adsorbate VDW energy:                                    0.00000000
	Host/Adsorbate Coulomb energy:                                0.00000000
	Host/Adsorbate charge-charge Real energy:                     0.00000000
	Host/Adsorbate charge-charge Fourier energy:                  0.00000000
	Host/Adsorbate charge-bonddipole Real energy:                 0.00000000
	Host/Adsorbate charge-bonddipole Fourier energy:              0.00000000
	Host/Adsorbate bondipole-bonddipole Real energy:              0.00000000
	Host/Adsorbate bondipole-bonddipole Fourier energy:           0.00000000

Host/Cation energy:                                           0.00000000
	Host/Cation VDW energy:                                       0.00000000
	Host/Cation Coulomb energy:                                   0.00000000
	Host/Cation charge-charge Real energy:                        0.00000000
	Host/Cation charge-charge Fourier energy:                     0.00000000
	Host/Cation charge-bonddipole Real energy:                    0.00000000
	Host/Cation charge-bonddipole Fourier energy:                 0.00000000
	Host/Cation bondipole-bonddipole Real energy:                 0.00000000
	Host/Cation bondipole-bonddipole Fourier energy:              0.00000000

Adsorbate/Adsorbate energy:                                 -2505991.73375310
	Adsorbate/Adsorbate VDW energy:                               421340.70882741
	Adsorbate/Adsorbate Coulomb energy:                         -2927332.44258051
	Adsorbate/Adsorbate charge-charge Real energy:              -2804025.97711408
	Adsorbate/Adsorbate charge-charge Fourier energy:            -123306.46546642
	Adsorbate/Adsorbate charge-bonddipole Real energy:                 0.00000000
	Adsorbate/Adsorbate charge-bonddipole Fourier energy:              0.00000000
	Adsorbate/Adsorbate bondipole-bonddipole Real energy:              0.00000000
	Adsorbate/Adsorbate bondipole-bonddipole Fourier energy:           0.00000000

Adsorbate/Cation energy:                                           0.00000000
	Adsorbate/Cation VDW energy:                                       0.00000000
	Adsorbate/Cation Coulomb energy:                                   0.00000000
	Adsorbate/Cation charge-charge Real energy:                        0.00000000
	Adsorbate/Cation charge-charge Fourier energy:                     0.00000000
	Adsorbate/Cation charge-bonddipole Real energy:                    0.00000000
	Adsorbate/Cation charge-bonddipole Fourier energy:                 0.00000000
	Adsorbate/Cation bondipole-bonddipole Real energy:                 0.00000000
	Adsorbate/Cation bondipole-bonddipole Fourier energy:              0.00000000

Cation/Cation energy:                                           0.00000000
	Cation/Cation VDW energy:                                       0.00000000
	Cation/Cation Coulomb energy:                                   0.00000000
	Cation/Cation charge-charge Real energy:                        0.00000000
	Cation/Cation charge-charge Fourier energy:                     0.00000000
	Cation/Cation charge-bonddipole Real energy:                    0.00000000
	Cation/Cation charge-bonddipole Fourier energy:                 0.00000000
	Cation/Cation bondipole-bonddipole Real energy:                 0.00000000
	Cation/Cation bondipole-bonddipole Fourier energy:              0.00000000

Polarization energy:
	Host polarization energy:                                     0.00000000
	Adsorbate polarization energy:                                0.00000000
	Cation polarization energy:                                   0.00000000
	Host back-polarization energy:                                     0.00000000
	Adsorbate back-polarization energy:                                0.00000000
	Cation back-polarization energy:                                   0.00000000

Tail-correction energy:                                       0.00000000

Distance constraints energy:                                  0.00000000
Angle constraints energy:                                     0.00000000
Dihedral constraints energy:                                  0.00000000
Inversion-bend constraints energy:                            0.00000000
Out-of-plane distance constraints energy:                     0.00000000
Exclusion constraints energy:                                 0.00000000

===================================================================
Total energy: -2505991.733753097244
	Total Van der Waals: 421340.708827
	Total Coulomb: -2927332.442581

	Total Polarization: 0.000000







+++++++++++++++++++++++++++++++++++++++++++++++++++++++++++++++++++++++++
Starting simulation
+++++++++++++++++++++++++++++++++++++++++++++++++++++++++++++++++++++++++

[Init] Current cycle: 0 out of 1000
========================================================================================================

Net charge: 0 (F: 0, A: 0, C: 0)
Current Box:  24.83000   0.00000   0.00000 [A]
               0.00000  24.83000   0.00000 [A]
               0.00000   0.00000  24.83000 [A]
Box-lengths:  24.83000  24.83000  24.83000 Box-angles:   90.00000  90.00000  90.00000 [degrees]
Volume: 15308.41259 [A^3]

Amount of molecules per component:
----------------------------------------------------------------------------------------------------------------------------------------------------
Component 0 (Tip5p), current number of integer/fractional/reaction molecules: 512/0/0, density: 999.74825 [kg/m^3]
----------------------------------------------------------------------------------------------------------------------------------------------------
Degrees of freedom: 3072 0 3072 0
Number of Framework-atoms:      0
Number of Adsorbates:         512 (512 integer, 0 fractional, 0 reaction)
Number of Cations:              0 (0 integer, 0 fractional, 0 reaction

Current total potential energy:          -2505991.7337530972 [K]
	Current Host-Host energy:                     0.0000000000 [K]
	Current Host-Adsorbate energy:                0.0000000000 [K]
	Current Host-Cation energy:                   0.0000000000 [K]
	Current Adsorbate-Adsorbate energy:    -2505991.7337530972 [K]
	Current Cation-Cation energy:                 0.0000000000 [K]
	Current Adsorbate-Cation energy:              0.0000000000 [K]



[Equilibration] Current cycle: 0 out of 5000
========================================================================================================

Net charge: 0 (F: 0, A: 0, C: 0)
Current Box:  24.83000   0.00000   0.00000 [A]
               0.00000  24.83000   0.00000 [A]
               0.00000   0.00000  24.83000 [A]
Box-lengths:  24.83000  24.83000  24.83000 Box-angles:   90.00000  90.00000  90.00000 [degrees]
Volume: 15308.41259 [A^3]

Total linear momentum:       0.0000000000 [A]      -0.0000000000 [A]      -0.0000000000 [A]

Amount of molecules per component:
----------------------------------------------------------------------------------------------------------------------------------------------------
Component 0 (Tip5p), current number of integer/fractional/reaction molecules: 512/0/0, density: 999.74825 [kg/m^3]
----------------------------------------------------------------------------------------------------------------------------------------------------
Degrees of freedom: 3069 0 3069 0
Number of Framework-atoms:      0
Number of Adsorbates:         512 (512 integer, 0 fractional, 0 reaction)
Number of Cations:              0 (0 integer, 0 fractional, 0 reaction)

Conserved energy:    -1673248.6436199644 Energy drifts:  0.0000000000           0.0000000000
Temperature:                    303.4027499887
Temperature Adsorbates:         303.4027499887
Cell temperature:    0.000
Current total kinetic energy:            387097.8069285770 [K]
Current total Nose-Hoover energy:        295321.0560266859 [K]
Current total potential energy:          -2494010.3824286973 [K]
	Current Host-Host energy:                     0.0000000000 [K]
	Current Host-Adsorbate energy:                0.0000000000 [K]
	Current Host-Cation energy:                   0.0000000000 [K]
	Current Adsorbate-Adsorbate energy:    -2494010.3824286973 [K]
	Current Cation-Cation energy:                 0.0000000000 [K]
	Current Adsorbate-Cation energy:              0.0000000000 [K]



[Equilibration] Current cycle: 1000 out of 5000
========================================================================================================

Net charge: 0 (F: 0, A: 0, C: 0)
Current Box:  24.83000   0.00000   0.00000 [A]
               0.00000  24.83000   0.00000 [A]
               0.00000   0.00000  24.83000 [A]
Box-lengths:  24.83000  24.83000  24.83000 Box-angles:   90.00000  90.00000  90.00000 [degrees]
Volume: 15308.41259 [A^3]

Total linear momentum:      -0.0000000000 [A]       0.0000000000 [A]      -0.0000000000 [A]

Amount of molecules per component:
----------------------------------------------------------------------------------------------------------------------------------------------------
Component 0 (Tip5p), current number of integer/fractional/reaction molecules: 512/0/0, density: 999.74825 [kg/m^3]
----------------------------------------------------------------------------------------------------------------------------------------------------
Degrees of freedom: 3069 0 3069 0
Number of Framework-atoms:      0
Number of Adsorbates:         512 (512 integer, 0 fractional, 0 reaction)
Number of Cations:              0 (0 integer, 0 fractional, 0 reaction)

Conserved energy:    -1673250.4877046337 Energy drifts:  0.0000013255           0.0000045768
Temperature:                    299.0098734463
Temperature Adsorbates:         299.0098734463
Cell temperature:    0.000
Current total kinetic energy:            381493.1350007998 [K]
Current total Nose-Hoover energy:        315747.2900849989 [K]
Current total potential energy:          -2511838.4792248448 [K]
	Current Host-Host energy:                     0.0000000000 [K]
	Current Host-Adsorbate energy:                0.0000000000 [K]
	Current Host-Cation energy:                   0.0000000000 [K]
	Current Adsorbate-Adsorbate energy:    -2511838.4792248448 [K]
	Current Cation-Cation energy:                 0.0000000000 [K]
	Current Adsorbate-Cation energy:              0.0000000000 [K]



[Equilibration] Current cycle: 2000 out of 5000
========================================================================================================

Net charge: 0 (F: 0, A: 0, C: 0)
Current Box:  24.83000   0.00000   0.00000 [A]
               0.00000  24.83000   0.00000 [A]
               0.00000   0.00000  24.83000 [A]
Box-lengths:  24.83000  24.83000  24.83000 Box-angles:   90.00000  90.00000  90.00000 [degrees]
Volume: 15308.41259 [A^3]

Total linear momentum:      -0.0000000000 [A]       0.0000000000 [A]      -0.0000000000 [A]

Amount of molecules per component:
----------------------------------------------------------------------------------------------------------------------------------------------------
Component 0 (Tip5p), current number of integer/fractional/reaction molecules: 512/0/0, density: 999.74825 [kg/m^3]
----------------------------------------------------------------------------------------------------------------------------------------------------
Degrees of freedom: 3069 0 3069 0
Number of Framework-atoms:      0
Number of Adsorbates:         512 (512 integer, 0 fractional, 0 reaction)
Number of Cations:              0 (0 integer, 0 fractional, 0 reaction)

Conserved energy:    -1673233.7032033447 Energy drifts:  0.0000107391           0.0000070131
Temperature:                    304.2238160765
Temperature Adsorbates:         304.2238160765
Cell temperature:    0.000
Current total kinetic energy:            388145.3679078841 [K]
Current total Nose-Hoover energy:        292270.7930262140 [K]
Current total potential energy:          -2491586.7436562194 [K]
	Current Host-Host energy:                     0.0000000000 [K]
	Current Host-Adsorbate energy:                0.0000000000 [K]
	Current Host-Cation energy:                   0.0000000000 [K]
	Current Adsorbate-Adsorbate energy:    -2491586.7436562194 [K]
	Current Cation-Cation energy:                 0.0000000000 [K]
	Current Adsorbate-Cation energy:              0.0000000000 [K]



[Equilibration] Current cycle: 3000 out of 5000
========================================================================================================

Net charge: 0 (F: 0, A: 0, C: 0)
Current Box:  24.83000   0.00000   0.00000 [A]
               0.00000  24.83000   0.00000 [A]
               0.00000   0.00000  24.83000 [A]
Box-lengths:  24.83000  24.83000  24.83000 Box-angles:   90.00000  90.00000  90.00000 [degrees]
Volume: 15308.41259 [A^3]

Total linear momentum:      -0.0000000000 [A]       0.0000000000 [A]       0.0000000000 [A]

Amount of molecules per component:
----------------------------------------------------------------------------------------------------------------------------------------------------
Component 0 (Tip5p), current number of integer/fractional/reaction molecules: 512/0/0, density: 999.74825 [kg/m^3]
----------------------------------------------------------------------------------------------------------------------------------------------------
Degrees of freedom: 3069 0 3069 0
Number of Framework-atoms:      0
Number of Adsorbates:         512 (512 integer, 0 fractional, 0 reaction)
Number of Cations:              0 (0 integer, 0 fractional, 0 reaction)

Conserved energy:    -1673263.0220878206 Energy drifts:  0.0000103352           0.0000063305
Temperature:                    294.9074690243
Temperature Adsorbates:         294.9074690243
Cell temperature:    0.000
Current total kinetic energy:            376259.0632760699 [K]
Current total Nose-Hoover energy:        308180.6832907486 [K]
Current total potential energy:          -2496455.3266927088 [K]
	Current Host-Host energy:                     0.0000000000 [K]
	Current Host-Adsorbate energy:                0.0000000000 [K]
	Current Host-Cation energy:                   0.0000000000 [K]
	Current Adsorbate-Adsorbate energy:    -2496455.3266927088 [K]
	Current Cation-Cation energy:                 0.0000000000 [K]
	Current Adsorbate-Cation energy:              0.0000000000 [K]



[Equilibration] Current cycle: 4000 out of 5000
========================================================================================================

Net charge: 0 (F: 0, A: 0, C: 0)
Current Box:  24.83000   0.00000   0.00000 [A]
               0.00000  24.83000   0.00000 [A]
               0.00000   0.00000  24.83000 [A]
Box-lengths:  24.83000  24.83000  24.83000 Box-angles:   90.00000  90.00000  90.00000 [degrees]
Volume: 15308.41259 [A^3]

Total linear momentum:      -0.0000000000 [A]       0.0000000000 [A]       0.0000000000 [A]

Amount of molecules per component:
----------------------------------------------------------------------------------------------------------------------------------------------------
Component 0 (Tip5p), current number of integer/fractional/reaction molecules: 512/0/0, density: 999.74825 [kg/m^3]
----------------------------------------------------------------------------------------------------------------------------------------------------
Degrees of freedom: 3069 0 3069 0
Number of Framework-atoms:      0
Number of Adsorbates:         512 (512 integer, 0 fractional, 0 reaction)
Number of Cations:              0 (0 integer, 0 fractional, 0 reaction)

Conserved energy:    -1673276.5482465136 Energy drifts:  0.0000200577           0.0000077073
Temperature:                    295.0009795276
Temperature Adsorbates:         295.0009795276
Cell temperature:    0.000
Current total kinetic energy:            376378.3690858146 [K]
Current total Nose-Hoover energy:        310765.1643392249 [K]
Current total potential energy:          -2499720.7629664177 [K]
	Current Host-Host energy:                     0.0000000000 [K]
	Current Host-Adsorbate energy:                0.0000000000 [K]
	Current Host-Cation energy:                   0.0000000000 [K]
	Current Adsorbate-Adsorbate energy:    -2499720.7629664177 [K]
	Current Cation-Cation energy:                 0.0000000000 [K]
	Current Adsorbate-Cation energy:              0.0000000000 [K]



Average Properties at Current cycle: 0 out of 25000
========================================================================================

Framework surface area:                nan [m^2/g]        0.0000000000 [m^2/cm^3]       0.0000000000 [A^2]
	Cation surface area:                                nan [m^2/g]        0.0000000000 [m^2/cm^3]       0.0000000000 [A^2]
Compressibility:       0.0000000000 [-]
Henry coefficients
	Component 0: 0 [mol/kg/Pa] (Rosenbluth factor new: 0 [-])
Energy <U_gh>_1-<U_h>_0 from Widom


Current cycle: 0 out of 25000
========================================================================================================

Time run:   0.000000 [ps]   0.000000 [ns] 
Net charge: 0 (F: 0, A: 0, C: 0)
Current Box:  24.83000   0.00000   0.00000 [A]   Average Box:  24.83000   0.00000   0.00000 [A]
               0.00000  24.83000   0.00000 [A]                  0.00000  24.83000   0.00000 [A]
               0.00000   0.00000  24.83000 [A]                  0.00000   0.00000  24.83000 [A]
Box-lengths:   24.83000  24.83000  24.83000 [A] Average:  24.83000  24.83000  24.83000 [A]
Box-angles:   90.00000  90.00000  90.00000 [degrees] Average:  90.00000  90.00000  90.00000 [degrees]
Volume: 15308.41259 [A^3] Average Volume: 15308.41259 [A^3]

Total linear momentum:      -0.0000000000 [A]       0.0000000000 [A]       0.0000000000 [A]

Current Stress: 260.56217 -88.62236 -11.99334 [MPa]   Average Stress: 260562.16580 -88622.36124 -11993.34202 [kPa]
                -88.62236  60.98218 116.96843 [MPa]                   -88622.36124 60982.17724 116968.42730 [kPa]
                -11.99334 116.96843  83.58984 [MPa]                   -11993.34202 116968.42730 83589.83879 [kPa]
Average pressure:  135044.7272792187 [kPa]    1332.7878339918 [atm]    1350.4472727922 [bar]

Amount of molecules per component:
----------------------------------------------------------------------------------------------------------------------------------------------------
Component 0 (Tip5p), current number of integer/fractional/reaction molecules: 512/0/0 (average 512.00000/  0.00000), density: 999.74825 (average 999.74825) kg/m^3]
----------------------------------------------------------------------------------------------------------------------------------------------------
Degrees of freedom: 3069 0 3069 0
Number of Framework-atoms:      0
Number of Adsorbates:         512 (512 integer, 0 fractional, 0 reaction)
Number of Cations:              0 (0 integer, 0 fractional, 0 reaction)

Conserved energy:    -1673283.8141061454 Energy drifts:  0.0000000000           0.0000000000
Temperature:             297.611 (avg.  297.611), Translational (avg.  288.871), Rotational (avg.  306.333)
Temperature Adsorbates:  297.611 (avg.  297.611), Translational (avg.  288.871), Rotational (avg.  306.333)
Cell temperature:    0.000 (avg.    0.000)
Current total kinetic energy:            379708.1267257624 [K]
Current total Nose-Hoover energy:        311248.4899393168 [K]
Current total potential energy:          -2504314.1166384006 [K]  (avg.    -2504314.1166384006)
	Current Host-Host energy:                     0.0000000000 [K]  (avg.           0.0000000000)
	Current Host-Adsorbate energy:                0.0000000000 [K]  (avg.           0.0000000000)
	Current Host-Cation energy:                   0.0000000000 [K]  (avg.           0.0000000000)
	Current Adsorbate-Adsorbate energy:    -2504314.1166384006 [K]  (avg.    -2504314.1166384006)
	Current Cation-Cation energy:                 0.0000000000 [K]  (avg.           0.0000000000)
	Current Adsorbate-Cation energy:              0.0000000000 [K]  (avg.           0.0000000000)



Current cycle: 1000 out of 25000
========================================================================================================

Time run:   0.500000 [ps]   0.000500 [ns] 
Net charge: 0 (F: 0, A: 0, C: 0)
Current Box:  24.83000   0.00000   0.00000 [A]   Average Box:  24.83000   0.00000   0.00000 [A]
               0.00000  24.83000   0.00000 [A]                  0.00000  24.83000   0.00000 [A]
               0.00000   0.00000  24.83000 [A]                  0.00000   0.00000  24.83000 [A]
Box-lengths:   24.83000  24.83000  24.83000 [A] Average:  24.83000  24.83000  24.83000 [A]
Box-angles:   90.00000  90.00000  90.00000 [degrees] Average:  90.00000  90.00000  90.00000 [degrees]
Volume: 15308.41259 [A^3] Average Volume: 15308.41259 [A^3]

Total linear momentum:      -0.0000000000 [A]       0.0000000000 [A]       0.0000000000 [A]

Current Stress: 123.02596  63.40567   2.83679 [MPa]   Average Stress: 128477.01951 13719.08132 -245.38682 [kPa]
                 63.40567 -57.52689  42.84361 [MPa]                   13719.08132 25416.22100 4434.86845 [kPa]
                  2.83679  42.84361 -78.70119 [MPa]                   -245.38682 4434.86845 16242.06027 [kPa]
Average pressure:   56711.7669263710 [kPa]     559.7016227621 [atm]     567.1176692637 [bar]

Amount of molecules per component:
----------------------------------------------------------------------------------------------------------------------------------------------------
Component 0 (Tip5p), current number of integer/fractional/reaction molecules: 512/0/0 (average 512.00000/  0.00000), density: 999.74825 (average 999.74825) kg/m^3]
----------------------------------------------------------------------------------------------------------------------------------------------------
Degrees of freedom: 3069 0 3069 0
Number of Framework-atoms:      0
Number of Adsorbates:         512 (512 integer, 0 fractional, 0 reaction)
Number of Cations:              0 (0 integer, 0 fractional, 0 reaction)

Conserved energy:    -1673263.0706229189 Energy drifts:  0.0000149100           0.0000068951
Temperature:             292.260 (avg.  299.207), Translational (avg.  300.517), Rotational (avg.  297.900)
Temperature Adsorbates:  292.260 (avg.  299.207), Translational (avg.  300.517), Rotational (avg.  297.900)
Cell temperature:    0.000 (avg.    0.000)
Current total kinetic energy:            372881.6069138572 [K]
Current total Nose-Hoover energy:        293109.6221108735 [K]
Current total potential energy:          -2474266.8951633573 [K]  (avg.    -2490481.8686893694)
	Current Host-Host energy:                     0.0000000000 [K]  (avg.           0.0000000000)
	Current Host-Adsorbate energy:                0.0000000000 [K]  (avg.           0.0000000000)
	Current Host-Cation energy:                   0.0000000000 [K]  (avg.           0.0000000000)
	Current Adsorbate-Adsorbate energy:    -2474266.8951633573 [K]  (avg.    -2490481.8686893694)
	Current Cation-Cation energy:                 0.0000000000 [K]  (avg.           0.0000000000)
	Current Adsorbate-Cation energy:              0.0000000000 [K]  (avg.           0.0000000000)



Current cycle: 2000 out of 25000
========================================================================================================

Time run:   1.000000 [ps]   0.001000 [ns] 
Net charge: 0 (F: 0, A: 0, C: 0)
Current Box:  24.83000   0.00000   0.00000 [A]   Average Box:  24.83000   0.00000   0.00000 [A]
               0.00000  24.83000   0.00000 [A]                  0.00000  24.83000   0.00000 [A]
               0.00000   0.00000  24.83000 [A]                  0.00000   0.00000  24.83000 [A]
Box-lengths:   24.83000  24.83000  24.83000 [A] Average:  24.83000  24.83000  24.83000 [A]
Box-angles:   90.00000  90.00000  90.00000 [degrees] Average:  90.00000  90.00000  90.00000 [degrees]
Volume: 15308.41259 [A^3] Average Volume: 15308.41259 [A^3]

Total linear momentum:      -0.0000000000 [A]       0.0000000000 [A]       0.0000000000 [A]

Current Stress:   5.23088  32.03673  89.84028 [MPa]   Average Stress: 88148.43472 12387.06426 -1917.70396 [kPa]
                 32.03673 101.37953   8.25771 [MPa]                   12387.06426 26913.47520 1933.73697 [kPa]
                 89.84028   8.25771  26.91416 [MPa]                   -1917.70396 1933.73697 14650.18526 [kPa]
Average pressure:   43237.3650632221 [kPa]     426.7196157239 [atm]     432.3736506322 [bar]

Amount of molecules per component:
----------------------------------------------------------------------------------------------------------------------------------------------------
Component 0 (Tip5p), current number of integer/fractional/reaction molecules: 512/0/0 (average 512.00000/  0.00000), density: 999.74825 (average 999.74825) kg/m^3]
----------------------------------------------------------------------------------------------------------------------------------------------------
Degrees of freedom: 3069 0 3069 0
Number of Framework-atoms:      0
Number of Adsorbates:         512 (512 integer, 0 fractional, 0 reaction)
Number of Cations:              0 (0 integer, 0 fractional, 0 reaction)

Conserved energy:    -1673296.7853091932 Energy drifts:  0.0000093235           0.0000055856
Temperature:             293.707 (avg.  298.615), Translational (avg.  299.067), Rotational (avg.  298.163)
Temperature Adsorbates:  293.707 (avg.  298.615), Translational (avg.  299.067), Rotational (avg.  298.163)
Cell temperature:    0.000 (avg.    0.000)
Current total kinetic energy:            374727.6748751542 [K]
Current total Nose-Hoover energy:        322358.3892113380 [K]
Current total potential energy:          -2511699.1231069290 [K]  (avg.    -2495372.0503185475)
	Current Host-Host energy:                     0.0000000000 [K]  (avg.           0.0000000000)
	Current Host-Adsorbate energy:                0.0000000000 [K]  (avg.           0.0000000000)
	Current Host-Cation energy:                   0.0000000000 [K]  (avg.           0.0000000000)
	Current Adsorbate-Adsorbate energy:    -2511699.1231069290 [K]  (avg.    -2495372.0503185475)
	Current Cation-Cation energy:                 0.0000000000 [K]  (avg.           0.0000000000)
	Current Adsorbate-Cation energy:              0.0000000000 [K]  (avg.           0.0000000000)



Current cycle: 3000 out of 25000
========================================================================================================

Time run:   1.500000 [ps]   0.001500 [ns] 
Net charge: 0 (F: 0, A: 0, C: 0)
Current Box:  24.83000   0.00000   0.00000 [A]   Average Box:  24.83000   0.00000   0.00000 [A]
               0.00000  24.83000   0.00000 [A]                  0.00000  24.83000   0.00000 [A]
               0.00000   0.00000  24.83000 [A]                  0.00000   0.00000  24.83000 [A]
Box-lengths:   24.83000  24.83000  24.83000 [A] Average:  24.83000  24.83000  24.83000 [A]
Box-angles:   90.00000  90.00000  90.00000 [degrees] Average:  90.00000  90.00000  90.00000 [degrees]
Volume: 15308.41259 [A^3] Average Volume: 15308.41259 [A^3]

Total linear momentum:      -0.0000000000 [A]       0.0000000000 [A]       0.0000000000 [A]

Current Stress:  60.59650  40.66242  -7.58127 [MPa]   Average Stress: 67804.45284 13934.42495 15825.77401 [kPa]
                 40.66242 178.76155  27.62360 [MPa]                   13934.42495 17408.97081 7072.37387 [kPa]
                 -7.58127  27.62360  27.77685 [MPa]                   15825.77401 7072.37387 11144.81637 [kPa]
Average pressure:   32119.4133389448 [kPa]     316.9939633747 [atm]     321.1941333894 [bar]

Amount of molecules per component:
----------------------------------------------------------------------------------------------------------------------------------------------------
Component 0 (Tip5p), current number of integer/fractional/reaction molecules: 512/0/0 (average 512.00000/  0.00000), density: 999.74825 (average 999.74825) kg/m^3]
----------------------------------------------------------------------------------------------------------------------------------------------------
Degrees of freedom: 3069 0 3069 0
Number of Framework-atoms:      0
Number of Adsorbates:         512 (512 integer, 0 fractional, 0 reaction)
Number of Cations:              0 (0 integer, 0 fractional, 0 reaction)

Conserved energy:    -1673281.8708502024 Energy drifts:  0.0000013968           0.0000051199
Temperature:             298.641 (avg.  298.137), Translational (avg.  299.203), Rotational (avg.  297.073)
Temperature Adsorbates:  298.641 (avg.  298.137), Translational (avg.  299.203), Rotational (avg.  297.073)
Cell temperature:    0.000 (avg.    0.000)
Current total kinetic energy:            381022.1556323057 [K]
Current total Nose-Hoover energy:        305869.0083212650 [K]
Current total potential energy:          -2499422.5546780559 [K]  (avg.    -2499928.0201395163)
	Current Host-Host energy:                     0.0000000000 [K]  (avg.           0.0000000000)
	Current Host-Adsorbate energy:                0.0000000000 [K]  (avg.           0.0000000000)
	Current Host-Cation energy:                   0.0000000000 [K]  (avg.           0.0000000000)
	Current Adsorbate-Adsorbate energy:    -2499422.5546780559 [K]  (avg.    -2499928.0201395163)
	Current Cation-Cation energy:                 0.0000000000 [K]  (avg.           0.0000000000)
	Current Adsorbate-Cation energy:              0.0000000000 [K]  (avg.           0.0000000000)



Current cycle: 4000 out of 25000
========================================================================================================

Time run:   2.000000 [ps]   0.002000 [ns] 
Net charge: 0 (F: 0, A: 0, C: 0)
Current Box:  24.83000   0.00000   0.00000 [A]   Average Box:  24.83000   0.00000   0.00000 [A]
               0.00000  24.83000   0.00000 [A]                  0.00000  24.83000   0.00000 [A]
               0.00000   0.00000  24.83000 [A]                  0.00000   0.00000  24.83000 [A]
Box-lengths:   24.83000  24.83000  24.83000 [A] Average:  24.83000  24.83000  24.83000 [A]
Box-angles:   90.00000  90.00000  90.00000 [degrees] Average:  90.00000  90.00000  90.00000 [degrees]
Volume: 15308.41259 [A^3] Average Volume: 15308.41259 [A^3]

Total linear momentum:      -0.0000000000 [A]       0.0000000000 [A]       0.0000000000 [A]

Current Stress: 155.44813  53.13059  -8.07388 [MPa]   Average Stress: 70726.50266 10449.69112 14540.61569 [kPa]
                 53.13059  50.81291 -51.90536 [MPa]                   10449.69112 22289.47458 7700.77165 [kPa]
                 -8.07388 -51.90536 -70.47219 [MPa]                   14540.61569 7700.77165 7907.53233 [kPa]
Average pressure:   33641.1698543331 [kPa]     332.0125324879 [atm]     336.4116985433 [bar]

Amount of molecules per component:
----------------------------------------------------------------------------------------------------------------------------------------------------
Component 0 (Tip5p), current number of integer/fractional/reaction molecules: 512/0/0 (average 512.00000/  0.00000), density: 999.74825 (average 999.74825) kg/m^3]
----------------------------------------------------------------------------------------------------------------------------------------------------
Degrees of freedom: 3069 0 3069 0
Number of Framework-atoms:      0
Number of Adsorbates:         512 (512 integer, 0 fractional, 0 reaction)
Number of Cations:              0 (0 integer, 0 fractional, 0 reaction)

Conserved energy:    -1673295.7404783289 Energy drifts:  0.0000085724           0.0000049561
Temperature:             311.004 (avg.  298.367), Translational (avg.  298.252), Rotational (avg.  298.482)
Temperature Adsorbates:  311.004 (avg.  298.367), Translational (avg.  298.252), Rotational (avg.  298.482)
Cell temperature:    0.000 (avg.    0.000)
Current total kinetic energy:            396796.2277900969 [K]
Current total Nose-Hoover energy:        320100.6803115477 [K]
Current total potential energy:          -2535525.0614733491 [K]  (avg.    -2502019.4167143144)
	Current Host-Host energy:                     0.0000000000 [K]  (avg.           0.0000000000)
	Current Host-Adsorbate energy:                0.0000000000 [K]  (avg.           0.0000000000)
	Current Host-Cation energy:                   0.0000000000 [K]  (avg.           0.0000000000)
	Current Adsorbate-Adsorbate energy:    -2535525.0614733491 [K]  (avg.    -2502019.4167143144)
	Current Cation-Cation energy:                 0.0000000000 [K]  (avg.           0.0000000000)
	Current Adsorbate-Cation energy:              0.0000000000 [K]  (avg.           0.0000000000)



Current cycle: 5000 out of 25000
========================================================================================================

Time run:   2.500000 [ps]   0.002500 [ns] 
Net charge: 0 (F: 0, A: 0, C: 0)
Current Box:  24.83000   0.00000   0.00000 [A]   Average Box:  24.83000   0.00000   0.00000 [A]
               0.00000  24.83000   0.00000 [A]                  0.00000  24.83000   0.00000 [A]
               0.00000   0.00000  24.83000 [A]                  0.00000   0.00000  24.83000 [A]
Box-lengths:   24.83000  24.83000  24.83000 [A] Average:  24.83000  24.83000  24.83000 [A]
Box-angles:   90.00000  90.00000  90.00000 [degrees] Average:  90.00000  90.00000  90.00000 [degrees]
Volume: 15308.41259 [A^3] Average Volume: 15308.41259 [A^3]

Total linear momentum:      -0.0000000000 [A]       0.0000000000 [A]      -0.0000000000 [A]

Current Stress: -34.43650  63.98719  50.38758 [MPa]   Average Stress: 76364.12302 9740.74134 10803.72963 [kPa]
                 63.98719  21.63301  43.74266 [MPa]                   9740.74134 33140.98606 3168.54113 [kPa]
                 50.38758  43.74266 -64.46022 [MPa]                   10803.72963 3168.54113 18142.61483 [kPa]
Average pressure:   42549.2413010955 [kPa]     419.9283622117 [atm]     425.4924130110 [bar]

Amount of molecules per component:
----------------------------------------------------------------------------------------------------------------------------------------------------
Component 0 (Tip5p), current number of integer/fractional/reaction molecules: 512/0/0 (average 512.00000/  0.00000), density: 999.74825 (average 999.74825) kg/m^3]
----------------------------------------------------------------------------------------------------------------------------------------------------
Degrees of freedom: 3069 0 3069 0
Number of Framework-atoms:      0
Number of Adsorbates:         512 (512 integer, 0 fractional, 0 reaction)
Number of Cations:              0 (0 integer, 0 fractional, 0 reaction)

Conserved energy:    -1673304.6885294244 Energy drifts:  0.0000150041           0.0000055455
Temperature:             289.182 (avg.  298.348), Translational (avg.  297.877), Rotational (avg.  298.818)
Temperature Adsorbates:  289.182 (avg.  298.348), Translational (avg.  297.877), Rotational (avg.  298.818)
Cell temperature:    0.000 (avg.    0.000)
Current total kinetic energy:            368954.3604369577 [K]
Current total Nose-Hoover energy:        361507.2513767838 [K]
Current total potential energy:          -2551848.6080936464 [K]  (avg.    -2509451.9375129458)
	Current Host-Host energy:                     0.0000000000 [K]  (avg.           0.0000000000)
	Current Host-Adsorbate energy:                0.0000000000 [K]  (avg.           0.0000000000)
	Current Host-Cation energy:                   0.0000000000 [K]  (avg.           0.0000000000)
	Current Adsorbate-Adsorbate energy:    -2551848.6080936464 [K]  (avg.    -2509451.9375129458)
	Current Cation-Cation energy:                 0.0000000000 [K]  (avg.           0.0000000000)
	Current Adsorbate-Cation energy:              0.0000000000 [K]  (avg.           0.0000000000)



Current cycle: 6000 out of 25000
========================================================================================================

Time run:   3.000000 [ps]   0.003000 [ns] 
Net charge: 0 (F: 0, A: 0, C: 0)
Current Box:  24.83000   0.00000   0.00000 [A]   Average Box:  24.83000   0.00000   0.00000 [A]
               0.00000  24.83000   0.00000 [A]                  0.00000  24.83000   0.00000 [A]
               0.00000   0.00000  24.83000 [A]                  0.00000   0.00000  24.83000 [A]
Box-lengths:   24.83000  24.83000  24.83000 [A] Average:  24.83000  24.83000  24.83000 [A]
Box-angles:   90.00000  90.00000  90.00000 [degrees] Average:  90.00000  90.00000  90.00000 [degrees]
Volume: 15308.41259 [A^3] Average Volume: 15308.41259 [A^3]

Total linear momentum:      -0.0000000000 [A]       0.0000000000 [A]      -0.0000000000 [A]

Current Stress:  13.66841  37.91802 -87.53254 [MPa]   Average Stress: 78148.99626 9974.19028 4692.03005 [kPa]
                 37.91802 -18.36623 -23.03152 [MPa]                   9974.19028 33257.94498 -1895.61898 [kPa]
                -87.53254 -23.03152 -90.01722 [MPa]                   4692.03005 -1895.61898 11390.80465 [kPa]
Average pressure:   40932.5819640068 [kPa]     403.9731750704 [atm]     409.3258196401 [bar]

Amount of molecules per component:
----------------------------------------------------------------------------------------------------------------------------------------------------
Component 0 (Tip5p), current number of integer/fractional/reaction molecules: 512/0/0 (average 512.00000/  0.00000), density: 999.74825 (average 999.74825) kg/m^3]
----------------------------------------------------------------------------------------------------------------------------------------------------
Degrees of freedom: 3069 0 3069 0
Number of Framework-atoms:      0
Number of Adsorbates:         512 (512 integer, 0 fractional, 0 reaction)
Number of Cations:              0 (0 integer, 0 fractional, 0 reaction)

Conserved energy:    -1673304.8523746526 Energy drifts:  0.0000151219           0.0000067936
Temperature:             298.909 (avg.  297.671), Translational (avg.  297.741), Rotational (avg.  297.600)
Temperature Adsorbates:  298.909 (avg.  297.671), Translational (avg.  297.741), Rotational (avg.  297.600)
Cell temperature:    0.000 (avg.    0.000)
Current total kinetic energy:            381365.0139535077 [K]
Current total Nose-Hoover energy:        321400.2160656491 [K]
Current total potential energy:          -2518537.6609564042 [K]  (avg.    -2515022.5940748518)
	Current Host-Host energy:                     0.0000000000 [K]  (avg.           0.0000000000)
	Current Host-Adsorbate energy:                0.0000000000 [K]  (avg.           0.0000000000)
	Current Host-Cation energy:                   0.0000000000 [K]  (avg.           0.0000000000)
	Current Adsorbate-Adsorbate energy:    -2518537.6609564042 [K]  (avg.    -2515022.5940748518)
	Current Cation-Cation energy:                 0.0000000000 [K]  (avg.           0.0000000000)
	Current Adsorbate-Cation energy:              0.0000000000 [K]  (avg.           0.0000000000)



Current cycle: 7000 out of 25000
========================================================================================================

Time run:   3.500000 [ps]   0.003500 [ns] 
Net charge: 0 (F: 0, A: 0, C: 0)
Current Box:  24.83000   0.00000   0.00000 [A]   Average Box:  24.83000   0.00000   0.00000 [A]
               0.00000  24.83000   0.00000 [A]                  0.00000  24.83000   0.00000 [A]
               0.00000   0.00000  24.83000 [A]                  0.00000   0.00000  24.83000 [A]
Box-lengths:   24.83000  24.83000  24.83000 [A] Average:  24.83000  24.83000  24.83000 [A]
Box-angles:   90.00000  90.00000  90.00000 [degrees] Average:  90.00000  90.00000  90.00000 [degrees]
Volume: 15308.41259 [A^3] Average Volume: 15308.41259 [A^3]

Total linear momentum:      -0.0000000000 [A]       0.0000000000 [A]       0.0000000000 [A]

Current Stress: -21.68841  10.08281 -34.36937 [MPa]   Average Stress: 66374.19874 12711.44561 3805.22888 [kPa]
                 10.08281 -163.82547 -53.06183 [MPa]                   12711.44561 26014.61711 -3028.65187 [kPa]
                -34.36937 -53.06183 -64.36136 [MPa]                   3805.22888 -3028.65187 4687.07244 [kPa]
Average pressure:   32358.6294290253 [kPa]     319.3548426255 [atm]     323.5862942903 [bar]

Amount of molecules per component:
----------------------------------------------------------------------------------------------------------------------------------------------------
Component 0 (Tip5p), current number of integer/fractional/reaction molecules: 512/0/0 (average 512.00000/  0.00000), density: 999.74825 (average 999.74825) kg/m^3]
----------------------------------------------------------------------------------------------------------------------------------------------------
Degrees of freedom: 3069 0 3069 0
Number of Framework-atoms:      0
Number of Adsorbates:         512 (512 integer, 0 fractional, 0 reaction)
Number of Cations:              0 (0 integer, 0 fractional, 0 reaction)

Conserved energy:    -1673294.1797144706 Energy drifts:  0.0000074506           0.0000066233
Temperature:             307.776 (avg.  298.353), Translational (avg.  298.728), Rotational (avg.  297.978)
Temperature Adsorbates:  307.776 (avg.  298.353), Translational (avg.  298.728), Rotational (avg.  297.978)
Cell temperature:    0.000 (avg.    0.000)
Current total kinetic energy:            392677.6752727573 [K]
Current total Nose-Hoover energy:        316464.4423234090 [K]
Current total potential energy:          -2526196.6258458472 [K]  (avg.    -2513878.6406206102)
	Current Host-Host energy:                     0.0000000000 [K]  (avg.           0.0000000000)
	Current Host-Adsorbate energy:                0.0000000000 [K]  (avg.           0.0000000000)
	Current Host-Cation energy:                   0.0000000000 [K]  (avg.           0.0000000000)
	Current Adsorbate-Adsorbate energy:    -2526196.6258458472 [K]  (avg.    -2513878.6406206102)
	Current Cation-Cation energy:                 0.0000000000 [K]  (avg.           0.0000000000)
	Current Adsorbate-Cation energy:              0.0000000000 [K]  (avg.           0.0000000000)



Current cycle: 8000 out of 25000
========================================================================================================

Time run:   4.000000 [ps]   0.004000 [ns] 
Net charge: 0 (F: 0, A: 0, C: 0)
Current Box:  24.83000   0.00000   0.00000 [A]   Average Box:  24.83000   0.00000   0.00000 [A]
               0.00000  24.83000   0.00000 [A]                  0.00000  24.83000   0.00000 [A]
               0.00000   0.00000  24.83000 [A]                  0.00000   0.00000  24.83000 [A]
Box-lengths:   24.83000  24.83000  24.83000 [A] Average:  24.83000  24.83000  24.83000 [A]
Box-angles:   90.00000  90.00000  90.00000 [degrees] Average:  90.00000  90.00000  90.00000 [degrees]
Volume: 15308.41259 [A^3] Average Volume: 15308.41259 [A^3]

Total linear momentum:      -0.0000000000 [A]       0.0000000000 [A]       0.0000000000 [A]

Current Stress: -107.96607 -12.84938 -60.75467 [MPa]   Average Stress: 55528.81581 12440.51901 3347.76633 [kPa]
                -12.84938 -76.30206   3.20072 [MPa]                   12440.51901 17461.04697 -6390.71630 [kPa]
                -60.75467   3.20072  90.12161 [MPa]                   3347.76633 -6390.71630 6080.93437 [kPa]
Average pressure:   26356.9323835250 [kPa]     260.1226980856 [atm]     263.5693238353 [bar]

Amount of molecules per component:
----------------------------------------------------------------------------------------------------------------------------------------------------
Component 0 (Tip5p), current number of integer/fractional/reaction molecules: 512/0/0 (average 512.00000/  0.00000), density: 999.74825 (average 999.74825) kg/m^3]
----------------------------------------------------------------------------------------------------------------------------------------------------
Degrees of freedom: 3069 0 3069 0
Number of Framework-atoms:      0
Number of Adsorbates:         512 (512 integer, 0 fractional, 0 reaction)
Number of Cations:              0 (0 integer, 0 fractional, 0 reaction)

Conserved energy:    -1673312.4701662995 Energy drifts:  0.0000205974           0.0000074296
Temperature:             313.729 (avg.  297.728), Translational (avg.  298.187), Rotational (avg.  297.269)
Temperature Adsorbates:  313.729 (avg.  297.728), Translational (avg.  298.187), Rotational (avg.  297.269)
Cell temperature:    0.000 (avg.    0.000)
Current total kinetic energy:            400272.2145385663 [K]
Current total Nose-Hoover energy:        319929.5780925748 [K]
Current total potential energy:          -2539516.6560430508 [K]  (avg.    -2515527.3544030301)
	Current Host-Host energy:                     0.0000000000 [K]  (avg.           0.0000000000)
	Current Host-Adsorbate energy:                0.0000000000 [K]  (avg.           0.0000000000)
	Current Host-Cation energy:                   0.0000000000 [K]  (avg.           0.0000000000)
	Current Adsorbate-Adsorbate energy:    -2539516.6560430508 [K]  (avg.    -2515527.3544030301)
	Current Cation-Cation energy:                 0.0000000000 [K]  (avg.           0.0000000000)
	Current Adsorbate-Cation energy:              0.0000000000 [K]  (avg.           0.0000000000)



Current cycle: 9000 out of 25000
========================================================================================================

Time run:   4.500000 [ps]   0.004500 [ns] 
Net charge: 0 (F: 0, A: 0, C: 0)
Current Box:  24.83000   0.00000   0.00000 [A]   Average Box:  24.83000   0.00000   0.00000 [A]
               0.00000  24.83000   0.00000 [A]                  0.00000  24.83000   0.00000 [A]
               0.00000   0.00000  24.83000 [A]                  0.00000   0.00000  24.83000 [A]
Box-lengths:   24.83000  24.83000  24.83000 [A] Average:  24.83000  24.83000  24.83000 [A]
Box-angles:   90.00000  90.00000  90.00000 [degrees] Average:  90.00000  90.00000  90.00000 [degrees]
Volume: 15308.41259 [A^3] Average Volume: 15308.41259 [A^3]

Total linear momentum:      -0.0000000000 [A]       0.0000000000 [A]       0.0000000000 [A]

Current Stress: -85.16113  61.72504  -6.90874 [MPa]   Average Stress: 44205.09719 10871.81369 2305.18956 [kPa]
                 61.72504 -52.26655  68.35244 [MPa]                   10871.81369 18358.91088 -5957.06493 [kPa]
                 -6.90874  68.35244  -2.81884 [MPa]                   2305.18956 -5957.06493 -771.15580 [kPa]
Average pressure:   20597.6174245094 [kPa]     203.2826787516 [atm]     205.9761742451 [bar]

Amount of molecules per component:
----------------------------------------------------------------------------------------------------------------------------------------------------
Component 0 (Tip5p), current number of integer/fractional/reaction molecules: 512/0/0 (average 512.00000/  0.00000), density: 999.74825 (average 999.74825) kg/m^3]
----------------------------------------------------------------------------------------------------------------------------------------------------
Degrees of freedom: 3069 0 3069 0
Number of Framework-atoms:      0
Number of Adsorbates:         512 (512 integer, 0 fractional, 0 reaction)
Number of Cations:              0 (0 integer, 0 fractional, 0 reaction)

Conserved energy:    -1673293.4003629172 Energy drifts:  0.0000068904           0.0000072275
Temperature:             304.639 (avg.  298.331), Translational (avg.  299.017), Rotational (avg.  297.646)
Temperature Adsorbates:  304.639 (avg.  298.331), Translational (avg.  299.017), Rotational (avg.  297.646)
Cell temperature:    0.000 (avg.    0.000)
Current total kinetic energy:            388674.4592460098 [K]
Current total Nose-Hoover energy:        283102.0640643841 [K]
Current total potential energy:          -2481255.3388348175 [K]  (avg.    -2513217.0154017252)
	Current Host-Host energy:                     0.0000000000 [K]  (avg.           0.0000000000)
	Current Host-Adsorbate energy:                0.0000000000 [K]  (avg.           0.0000000000)
	Current Host-Cation energy:                   0.0000000000 [K]  (avg.           0.0000000000)
	Current Adsorbate-Adsorbate energy:    -2481255.3388348175 [K]  (avg.    -2513217.0154017252)
	Current Cation-Cation energy:                 0.0000000000 [K]  (avg.           0.0000000000)
	Current Adsorbate-Cation energy:              0.0000000000 [K]  (avg.           0.0000000000)



Average Properties at Current cycle: 10000 out of 25000
========================================================================================

Framework surface area:                nan [m^2/g]        0.0000000000 [m^2/cm^3]       0.0000000000 [A^2]
	Cation surface area:                                nan [m^2/g]        0.0000000000 [m^2/cm^3]       0.0000000000 [A^2]
Compressibility:       0.0000000000 [-]
Henry coefficients
	Component 0: 0 [mol/kg/Pa] (Rosenbluth factor new: 0 [-])
Energy <U_gh>_1-<U_h>_0 from Widom


Current cycle: 10000 out of 25000
========================================================================================================

Time run:   5.000000 [ps]   0.005000 [ns] 
Net charge: 0 (F: 0, A: 0, C: 0)
Current Box:  24.83000   0.00000   0.00000 [A]   Average Box:  24.83000   0.00000   0.00000 [A]
               0.00000  24.83000   0.00000 [A]                  0.00000  24.83000   0.00000 [A]
               0.00000   0.00000  24.83000 [A]                  0.00000   0.00000  24.83000 [A]
Box-lengths:   24.83000  24.83000  24.83000 [A] Average:  24.83000  24.83000  24.83000 [A]
Box-angles:   90.00000  90.00000  90.00000 [degrees] Average:  90.00000  90.00000  90.00000 [degrees]
Volume: 15308.41259 [A^3] Average Volume: 15308.41259 [A^3]

Total linear momentum:      -0.0000000000 [A]       0.0000000000 [A]       0.0000000000 [A]

Current Stress: -132.81757  23.36850 -11.81107 [MPa]   Average Stress: 32606.13419 9593.29896 2368.78025 [kPa]
                 23.36850  69.85258  29.11989 [MPa]                   9593.29896 19043.89017 -6922.67417 [kPa]
                -11.81107  29.11989 -112.51392 [MPa]                   2368.78025 -6922.67417 -2502.96143 [kPa]
Average pressure:   16382.3543126489 [kPa]     161.6812663474 [atm]     163.8235431265 [bar]

Amount of molecules per component:
----------------------------------------------------------------------------------------------------------------------------------------------------
Component 0 (Tip5p), current number of integer/fractional/reaction molecules: 512/0/0 (average 512.00000/  0.00000), density: 999.74825 (average 999.74825) kg/m^3]
----------------------------------------------------------------------------------------------------------------------------------------------------
Degrees of freedom: 3069 0 3069 0
Number of Framework-atoms:      0
Number of Adsorbates:         512 (512 integer, 0 fractional, 0 reaction)
Number of Cations:              0 (0 integer, 0 fractional, 0 reaction)

Conserved energy:    -1673301.2440217515 Energy drifts:  0.0000125283           0.0000073250
Temperature:             292.530 (avg.  298.173), Translational (avg.  299.298), Rotational (avg.  297.051)
Temperature Adsorbates:  292.530 (avg.  298.173), Translational (avg.  299.298), Rotational (avg.  297.051)
Cell temperature:    0.000 (avg.    0.000)
Current total kinetic energy:            373226.1667455783 [K]
Current total Nose-Hoover energy:        299685.4958906798 [K]
Current total potential energy:          -2482628.4421273782 [K]  (avg.    -2510130.2821705728)
	Current Host-Host energy:                     0.0000000000 [K]  (avg.           0.0000000000)
	Current Host-Adsorbate energy:                0.0000000000 [K]  (avg.           0.0000000000)
	Current Host-Cation energy:                   0.0000000000 [K]  (avg.           0.0000000000)
	Current Adsorbate-Adsorbate energy:    -2482628.4421273782 [K]  (avg.    -2510130.2821705728)
	Current Cation-Cation energy:                 0.0000000000 [K]  (avg.           0.0000000000)
	Current Adsorbate-Cation energy:              0.0000000000 [K]  (avg.           0.0000000000)



Current cycle: 11000 out of 25000
========================================================================================================

Time run:   5.500000 [ps]   0.005500 [ns] 
Net charge: 0 (F: 0, A: 0, C: 0)
Current Box:  24.83000   0.00000   0.00000 [A]   Average Box:  24.83000   0.00000   0.00000 [A]
[...]
	Block[ 3]            0.00000 [K]
	Block[ 4]            0.00000 [K]
	------------------------------------------------------------------------------
	Average              0.00000 [K] +/-            0.00000 [K]

Average Cation Bend angle inversion energy:
===========================================
	Block[ 0]            0.00000 [K]
	Block[ 1]            0.00000 [K]
	Block[ 2]            0.00000 [K]
	Block[ 3]            0.00000 [K]
	Block[ 4]            0.00000 [K]
	------------------------------------------------------------------------------
	Average              0.00000 [K] +/-            0.00000 [K]

Average Cation Torsion energy:
==============================
	Block[ 0]            0.00000 [K]
	Block[ 1]            0.00000 [K]
	Block[ 2]            0.00000 [K]
	Block[ 3]            0.00000 [K]
	Block[ 4]            0.00000 [K]
	------------------------------------------------------------------------------
	Average              0.00000 [K] +/-            0.00000 [K]

Average Cation Improper Torsion energy:
=======================================
	Block[ 0]            0.00000 [K]
	Block[ 1]            0.00000 [K]
	Block[ 2]            0.00000 [K]
	Block[ 3]            0.00000 [K]
	Block[ 4]            0.00000 [K]
	------------------------------------------------------------------------------
	Average              0.00000 [K] +/-            0.00000 [K]

Average Cation Bond-Bond cross term energy:
=================================================
	Block[ 0]            0.00000 [K]
	Block[ 1]            0.00000 [K]
	Block[ 2]            0.00000 [K]
	Block[ 3]            0.00000 [K]
	Block[ 4]            0.00000 [K]
	------------------------------------------------------------------------------
	Average              0.00000 [K] +/-            0.00000 [K]

Average Cation Bend-Bend cross term energy:
===========================================
	Block[ 0]            0.00000 [K]
	Block[ 1]            0.00000 [K]
	Block[ 2]            0.00000 [K]
	Block[ 3]            0.00000 [K]
	Block[ 4]            0.00000 [K]
	------------------------------------------------------------------------------
	Average              0.00000 [K] +/-            0.00000 [K]

Average Cation Bond-Bend cross term energy:
==============================================
	Block[ 0]            0.00000 [K]
	Block[ 1]            0.00000 [K]
	Block[ 2]            0.00000 [K]
	Block[ 3]            0.00000 [K]
	Block[ 4]            0.00000 [K]
	------------------------------------------------------------------------------
	Average              0.00000 [K] +/-            0.00000 [K]

Average Cation Bond-Torsion cross term energy:
==============================================
	Block[ 0]            0.00000 [K]
	Block[ 1]            0.00000 [K]
	Block[ 2]            0.00000 [K]
	Block[ 3]            0.00000 [K]
	Block[ 4]            0.00000 [K]
	------------------------------------------------------------------------------
	Average              0.00000 [K] +/-            0.00000 [K]

Average Cation Bend-Torsion cross term energy:
==============================================
	Block[ 0]            0.00000 [K]
	Block[ 1]            0.00000 [K]
	Block[ 2]            0.00000 [K]
	Block[ 3]            0.00000 [K]
	Block[ 4]            0.00000 [K]
	------------------------------------------------------------------------------
	Average              0.00000 [K] +/-            0.00000 [K]

Average Cation Intra Van der Waals energy:
==========================================
	Block[ 0]            0.00000 [K]
	Block[ 1]            0.00000 [K]
	Block[ 2]            0.00000 [K]
	Block[ 3]            0.00000 [K]
	Block[ 4]            0.00000 [K]
	------------------------------------------------------------------------------
	Average              0.00000 [K] +/-            0.00000 [K]

Average Cation Intra charge-charge Coulomb energy:
====================================
	Block[ 0]            0.00000 [K]
	Block[ 1]            0.00000 [K]
	Block[ 2]            0.00000 [K]
	Block[ 3]            0.00000 [K]
	Block[ 4]            0.00000 [K]
	------------------------------------------------------------------------------
	Average              0.00000 [K] +/-            0.00000 [K]

Average Cation Intra charge-bonddipole Coulomb energy:
====================================
	Block[ 0]            0.00000 [K]
	Block[ 1]            0.00000 [K]
	Block[ 2]            0.00000 [K]
	Block[ 3]            0.00000 [K]
	Block[ 4]            0.00000 [K]
	------------------------------------------------------------------------------
	Average              0.00000 [K] +/-            0.00000 [K]

Average Cation Intra bonddipole-bonddipole Coulomb energy:
====================================
	Block[ 0]            0.00000 [K]
	Block[ 1]            0.00000 [K]
	Block[ 2]            0.00000 [K]
	Block[ 3]            0.00000 [K]
	Block[ 4]            0.00000 [K]
	------------------------------------------------------------------------------
	Average              0.00000 [K] +/-            0.00000 [K]

Average Host-Host energy:
=========================
	Block[ 0] 0.00000            Van der Waals: 0.00000            Coulomb: 0.00000            [K]
	Block[ 1] 0.00000            Van der Waals: 0.00000            Coulomb: 0.00000            [K]
	Block[ 2] 0.00000            Van der Waals: 0.00000            Coulomb: 0.00000            [K]
	Block[ 3] 0.00000            Van der Waals: 0.00000            Coulomb: 0.00000            [K]
	Block[ 4] 0.00000            Van der Waals: 0.00000            Coulomb: 0.00000            [K]
	------------------------------------------------------------------------------
	Average   0.00000            Van der Waals: 0.000000           Coulomb: 0.00000            [K]
	      +/- 0.00000                       +/- 0.000000                +/- 0.00000            [K]

Average Adsorbate-Adsorbate energy:
===================================
	Block[ 0] -2509443.45818     Van der Waals: 425736.28654       Coulomb: -2935179.74472     [K]
	Block[ 1] -2510822.60653     Van der Waals: 406906.59925       Coulomb: -2917729.20579     [K]
	Block[ 2] -2505011.37690     Van der Waals: 403753.64023       Coulomb: -2908765.01713     [K]
	Block[ 3] -2491434.36961     Van der Waals: 392260.86764       Coulomb: -2883695.23725     [K]
	Block[ 4] -2503389.37665     Van der Waals: 408599.68628       Coulomb: -2911989.06294     [K]
	------------------------------------------------------------------------------
	Average   -2504020.23757     Van der Waals: 407451.415990      Coulomb: -2911471.65356     [K]
	      +/- 9525.11822                    +/- 14954.089970            +/- 23062.14059        [K]

Average Cation-Cation energy:
=============================
	Block[ 0] 0.00000            Van der Waals: 0.00000            Coulomb: 0.00000            [K]
	Block[ 1] 0.00000            Van der Waals: 0.00000            Coulomb: 0.00000            [K]
	Block[ 2] 0.00000            Van der Waals: 0.00000            Coulomb: 0.00000            [K]
	Block[ 3] 0.00000            Van der Waals: 0.00000            Coulomb: 0.00000            [K]
	Block[ 4] 0.00000            Van der Waals: 0.00000            Coulomb: 0.00000            [K]
	------------------------------------------------------------------------------
	Average   0.00000            Van der Waals: 0.000000           Coulomb: 0.00000            [K]
	      +/- 0.00000                       +/- 0.000000                +/- 0.00000            [K]

Average Host-Adsorbate energy:
==============================
	Block[ 0] 0.00000            Van der Waals: 0.00000            Coulomb: 0.00000            [K]
	Block[ 1] 0.00000            Van der Waals: 0.00000            Coulomb: 0.00000            [K]
	Block[ 2] 0.00000            Van der Waals: 0.00000            Coulomb: 0.00000            [K]
	Block[ 3] 0.00000            Van der Waals: 0.00000            Coulomb: 0.00000            [K]
	Block[ 4] 0.00000            Van der Waals: 0.00000            Coulomb: 0.00000            [K]
	------------------------------------------------------------------------------
	Average   0.00000            Van der Waals: 0.000000           Coulomb: 0.00000            [K]
	      +/- 0.00000                       +/- 0.000000                +/- 0.00000            [K]

Average Host-Cation energy:
===========================
	Block[ 0] 0.00000            Van der Waals: 0.00000            Coulomb: 0.00000            [K]
	Block[ 1] 0.00000            Van der Waals: 0.00000            Coulomb: 0.00000            [K]
	Block[ 2] 0.00000            Van der Waals: 0.00000            Coulomb: 0.00000            [K]
	Block[ 3] 0.00000            Van der Waals: 0.00000            Coulomb: 0.00000            [K]
	Block[ 4] 0.00000            Van der Waals: 0.00000            Coulomb: 0.00000            [K]
	------------------------------------------------------------------------------
	Average   0.00000            Van der Waals: 0.000000           Coulomb: 0.00000            [K]
	      +/- 0.00000                       +/- 0.000000                +/- 0.00000            [K]

Average Adsorbate-Cation energy:
================================
	Block[ 0] 0.00000            Van der Waals: 0.00000            Coulomb: 0.00000            [K]
	Block[ 1] 0.00000            Van der Waals: 0.00000            Coulomb: 0.00000            [K]
	Block[ 2] 0.00000            Van der Waals: 0.00000            Coulomb: 0.00000            [K]
	Block[ 3] 0.00000            Van der Waals: 0.00000            Coulomb: 0.00000            [K]
	Block[ 4] 0.00000            Van der Waals: 0.00000            Coulomb: 0.00000            [K]
	------------------------------------------------------------------------------
	Average   0.00000            Van der Waals: 0.000000           Coulomb: 0.00000            [K]
	      +/- 0.00000                       +/- 0.000000                +/- 0.00000            [K]

Host polarization energy:
=======================
	Block[ 0]            0.00000 [K]
	Block[ 1]            0.00000 [K]
	Block[ 2]            0.00000 [K]
	Block[ 3]            0.00000 [K]
	Block[ 4]            0.00000 [K]
	------------------------------------------------------------------------------
	Average              0.00000 [K] +/-            0.00000 [K]

Adsorbate polarization energy:
=======================
	Block[ 0]            0.00000 [K]
	Block[ 1]            0.00000 [K]
	Block[ 2]            0.00000 [K]
	Block[ 3]            0.00000 [K]
	Block[ 4]            0.00000 [K]
	------------------------------------------------------------------------------
	Average              0.00000 [K] +/-            0.00000 [K]

Cation polarization energy:
=======================
	Block[ 0]            0.00000 [K]
	Block[ 1]            0.00000 [K]
	Block[ 2]            0.00000 [K]
	Block[ 3]            0.00000 [K]
	Block[ 4]            0.00000 [K]
	------------------------------------------------------------------------------
	Average              0.00000 [K] +/-            0.00000 [K]

Host back-polarization energy:
=======================
	Block[ 0]            0.00000 [K]
	Block[ 1]            0.00000 [K]
	Block[ 2]            0.00000 [K]
	Block[ 3]            0.00000 [K]
	Block[ 4]            0.00000 [K]
	------------------------------------------------------------------------------
	Average              0.00000 [K] +/-            0.00000 [K]

Adsorbate back-polarization energy:
=======================
	Block[ 0]            0.00000 [K]
	Block[ 1]            0.00000 [K]
	Block[ 2]            0.00000 [K]
	Block[ 3]            0.00000 [K]
	Block[ 4]            0.00000 [K]
	------------------------------------------------------------------------------
	Average              0.00000 [K] +/-            0.00000 [K]

Cation back-polarization energy:
=======================
	Block[ 0]            0.00000 [K]
	Block[ 1]            0.00000 [K]
	Block[ 2]            0.00000 [K]
	Block[ 3]            0.00000 [K]
	Block[ 4]            0.00000 [K]
	------------------------------------------------------------------------------
	Average              0.00000 [K] +/-            0.00000 [K]

Tail-correction energy:
=======================
	Block[ 0]            0.00000 [K]
	Block[ 1]            0.00000 [K]
	Block[ 2]            0.00000 [K]
	Block[ 3]            0.00000 [K]
	Block[ 4]            0.00000 [K]
	------------------------------------------------------------------------------
	Average              0.00000 [K] +/-            0.00000 [K]

Distance-constraints energy:
=======================
	Block[ 0]            0.00000 [K]
	Block[ 1]            0.00000 [K]
	Block[ 2]            0.00000 [K]
	Block[ 3]            0.00000 [K]
	Block[ 4]            0.00000 [K]
	------------------------------------------------------------------------------
	Average              0.00000 [K] +/-            0.00000 [K]

Angle-constraints energy:
=======================
	Block[ 0]            0.00000 [K]
	Block[ 1]            0.00000 [K]
	Block[ 2]            0.00000 [K]
	Block[ 3]            0.00000 [K]
	Block[ 4]            0.00000 [K]
	------------------------------------------------------------------------------
	Average              0.00000 [K] +/-            0.00000 [K]

Dihedral-constraints energy:
=======================
	Block[ 0]            0.00000 [K]
	Block[ 1]            0.00000 [K]
	Block[ 2]            0.00000 [K]
	Block[ 3]            0.00000 [K]
	Block[ 4]            0.00000 [K]
	------------------------------------------------------------------------------
	Average              0.00000 [K] +/-            0.00000 [K]

Inversion-bend constraints energy:
=======================
	Block[ 0]            0.00000 [K]
	Block[ 1]            0.00000 [K]
	Block[ 2]            0.00000 [K]
	Block[ 3]            0.00000 [K]
	Block[ 4]            0.00000 [K]
	------------------------------------------------------------------------------
	Average              0.00000 [K] +/-            0.00000 [K]

Out-of-plane-distance constraints energy:
=======================
	Block[ 0]            0.00000 [K]
	Block[ 1]            0.00000 [K]
	Block[ 2]            0.00000 [K]
	Block[ 3]            0.00000 [K]
	Block[ 4]            0.00000 [K]
	------------------------------------------------------------------------------
	Average              0.00000 [K] +/-            0.00000 [K]

Exclusion-constraints energy:
=======================
	Block[ 0]            0.00000 [K]
	Block[ 1]            0.00000 [K]
	Block[ 2]            0.00000 [K]
	Block[ 3]            0.00000 [K]
	Block[ 4]            0.00000 [K]
	------------------------------------------------------------------------------
	Average              0.00000 [K] +/-            0.00000 [K]

Total energy:
=============
	Block[ 0]     -2509443.45818 [K]
	Block[ 1]     -2510822.60653 [K]
	Block[ 2]     -2505011.37690 [K]
	Block[ 3]     -2491434.36961 [K]
	Block[ 4]     -2503389.37665 [K]
	------------------------------------------------------------------------------
	Average       -2504020.23757 [K] +/-         9525.11822 [K]

Number of molecules:
====================

Component 0 [Tip5p]
-------------------------------------------------------------
	Block[ 0] 512.00000          [-]
	Block[ 1] 512.00000          [-]
	Block[ 2] 512.00000          [-]
	Block[ 3] 512.00000          [-]
	Block[ 4] 512.00000          [-]
	------------------------------------------------------------------------------
	Average loading absolute                            512.0000000000 +/-       0.0000000000 [-]
	Average loading absolute [molecules/unit cell]      512.0000000000 +/-       0.0000000000 [-]
	Average loading absolute [mol/kg framework]                           inf +/-                nan [-]
	Average loading absolute [milligram/gram framework]                   inf +/-                nan [-]
	Average loading absolute [cm^3 (STP)/gr framework]                    inf +/-                nan [-]
	Average loading absolute [cm^3 (STP)/cm^3 framework]      1244.8232998028 +/-       0.0000000000 [-]

	Block[ 0] 512.00000          [-]
	Block[ 1] 512.00000          [-]
	Block[ 2] 512.00000          [-]
	Block[ 3] 512.00000          [-]
	Block[ 4] 512.00000          [-]
	------------------------------------------------------------------------------
	Average loading excess                            512.0000000000 +/-       0.0000000000 [-]
	Average loading excess [molecules/unit cell]      512.0000000000 +/-       0.0000000000 [-]
	Average loading excess [mol/kg framework]                             inf +/-                nan [-]
	Average loading excess [milligram/gram framework]                     inf +/-                nan [-]
	Average loading excess [cm^3 (STP)/gr framework]                      inf +/-                nan [-]
	Average loading excess [cm^3 (STP)/cm^3 framework]        1244.8232998028 +/-       0.0000000000 [-]


Average Widom Rosenbluth factor:
================================
	Block[ 0] 0 [-]
	Block[ 1] 0 [-]
	Block[ 2] 0 [-]
	Block[ 3] 0 [-]
	Block[ 4] 0 [-]
	------------------------------------------------------------------------------
	[Tip5p] Average Widom Rosenbluth-weight:   0 +/- 0.000000 [-]

Average Widom chemical potential:
=================================
	Block[ 0] 0 [-]
	Block[ 1] 0 [-]
	Block[ 2] 0 [-]
	Block[ 3] 0 [-]
	Block[ 4] 0 [-]
	------------------------------------------------------------------------------
	[Tip5p] Average chemical potential:   0 +/- 0.000000 [K]

Average Widom Ideal-gas contribution:
=====================================
	Block[ 0] 0 [-]
	Block[ 1] 0 [-]
	Block[ 2] 0 [-]
	Block[ 3] 0 [-]
	Block[ 4] 0 [-]
	------------------------------------------------------------------------------
	[Tip5p] Average Widom Ideal-gas chemical potential:   0 +/- 0.000000 [-]

Average Widom excess contribution:
==================================
	Block[ 0] 0 [-]
	Block[ 1] 0 [-]
	Block[ 2] 0 [-]
	Block[ 3] 0 [-]
	Block[ 4] 0 [-]
	------------------------------------------------------------------------------
	[Tip5p] Average Widom excess chemical potential:   0 +/- 0.000000 [-]

Average Gibbs Widom Rosenbluth factor:
======================================
	Block[ 0] 0 [-]
	Block[ 1] 0 [-]
	Block[ 2] 0 [-]
	Block[ 3] 0 [-]
	Block[ 4] 0 [-]
	------------------------------------------------------------------------------
	[Tip5p] Average Gibbs Widom Rosenbluth-weight:   0 +/- 0.000000 [-]

Average Gibbs Widom chemical potential:
=======================================
	Block[ 0] 0 [-]
	Block[ 1] 0 [-]
	Block[ 2] 0 [-]
	Block[ 3] 0 [-]
	Block[ 4] 0 [-]
	------------------------------------------------------------------------------
	[Tip5p] Average Gibbs chemical potential:   0 +/- 0.000000 [K]

Average Gibbs Widom Ideal-gas contribution:
===========================================
	Block[ 0] 0 [-]
	Block[ 1] 0 [-]
	Block[ 2] 0 [-]
	Block[ 3] 0 [-]
	Block[ 4] 0 [-]
	------------------------------------------------------------------------------
	[Tip5p] Average Gibbs Ideal-gas chemical potential:   0 +/- 0.000000 [-]

Average Gibbs Widom excess contribution:
===========================================
	Block[ 0] 0 [-]
	Block[ 1] 0 [-]
	Block[ 2] 0 [-]
	Block[ 3] 0 [-]
	Block[ 4] 0 [-]
	------------------------------------------------------------------------------
	[Tip5p] Average Gibbs excess chemical potential:   0 +/- 0.000000 [-]

Average Henry coefficient:
==========================
	Block[ 0] 0 [mol/kg/Pa]
	Block[ 1] 0 [mol/kg/Pa]
	Block[ 2] 0 [mol/kg/Pa]
	Block[ 3] 0 [mol/kg/Pa]
	Block[ 4] 0 [mol/kg/Pa]
	------------------------------------------------------------------------------
	[Tip5p] Average Henry coefficient:  0 +/- 0 [mol/kg/Pa]

Average adsorption energy <U_gh>_1-<U_h>_0 obtained from Widom-insertion:
(Note: the total heat of adsorption is dH=<U_gh>_1-<U_h>_0 - <U_g> - RT)
=========================================================================

Simulation finished,  0 warnings


Tue May 18 17:19:34 2021
Simulation finished on Tuesday, May 18.
The end time was 05:19 PM.

