# vtk DataFile Version 1.0
Cube
ASCII

DATASET POLYDATA
POINTS 158 float
-1.546486 2.683419 1.572123
11.723514 2.683419 1.572123
-1.575812 4.878421 3.762500
-1.963296 4.014210 2.423050
11.306703 4.014210 2.423050
0.000664 2.249015 1.902320
0.000000 2.891427 9.540195
3.500626 0.000000 0.000000
3.500626 0.000000 15.050000
-3.134374 11.492157 0.000000
-3.134374 11.492157 15.050000
0.000664 5.269154 3.762500
0.000000 10.579680 3.762500
10.172848 0.002413 9.097123
3.537848 11.494570 9.097123
8.257257 1.074517 11.287500
8.811943 0.306841 9.948050
2.176944 11.798998 9.948050
11.322627 1.125082 9.427320
10.765951 1.445713 2.015195
1.750313 3.031631 7.525000
8.707110 2.635152 11.287500
4.107729 5.289840 11.287500
5.084334 8.811152 1.572123
3.198070 7.688253 3.762500
4.140240 7.784787 2.423050
4.686964 10.368224 1.902320
4.130951 10.046444 9.540195
-1.750313 3.031631 0.000000
-1.750313 3.031631 15.050000
11.519687 3.031631 0.000000
11.519687 3.031631 15.050000
2.071447 8.858155 3.762500
-2.527271 6.202317 3.762500
-5.088514 8.808738 9.097123
8.181486 8.808738 9.097123
8.210812 6.613736 11.287500
-4.671703 7.477947 9.948050
8.598297 7.477947 9.948050
6.634337 9.243142 9.427320
6.635000 8.600730 2.015195
9.769374 0.000000 7.525000
3.134374 11.492157 7.525000
6.634336 6.223003 11.287500
6.635000 0.912477 11.287500
3.097152 -0.002413 1.572123
-3.537848 11.489744 1.572123
-1.622257 10.417640 3.762500
4.458057 -0.306841 2.423050
-2.176943 11.185317 2.423050
-4.687627 10.367075 1.902320
-4.130951 10.046444 9.540195
4.884687 8.460526 0.000000
4.884687 8.460526 15.050000
-2.072110 8.857005 3.762500
2.527271 6.202317 3.762500
1.550666 2.681005 9.097123
3.436930 3.803904 11.287500
2.494760 3.707370 9.948050
1.948036 1.123933 9.427320
2.504049 1.445713 2.015195
-4.884687 8.460526 7.525000
8.385313 8.460526 7.525000
4.563553 2.634002 11.287500
9.162271 5.289840 11.287500
10.172848 -0.002413 5.952877
3.537848 11.489744 5.952877
1.622258 10.417640 3.762500
8.811943 -0.306841 5.101950
2.176944 11.185317 5.101950
4.687628 10.367075 5.622680
4.130951 10.046444 13.034805
5.088514 8.808738 13.477877
5.059188 6.613736 11.287500
4.671704 7.477947 12.626950
6.635664 9.243142 13.147680
6.635000 8.600730 5.509805
-5.084334 8.811152 5.952877
8.185666 8.811152 5.952877
-3.198070 7.688253 3.762500
-4.140240 7.784787 5.101950
9.129760 7.784787 5.101950
-4.686964 10.368224 5.622680
-4.130951 10.046444 13.034805
3.097152 0.002413 13.477877
-3.537848 11.494570 13.477877
5.012743 1.074517 11.287500
4.458056 0.306841 12.626950
-2.176943 11.798998 12.626950
1.947373 1.125082 13.147680
2.504049 1.445713 5.509805
1.546486 2.683419 5.952877
1.575813 4.878421 3.762500
1.963297 4.014210 5.101950
-0.000663 2.249015 5.622680
0.000000 2.891427 13.034805
-1.550666 2.681005 13.477877
11.719334 2.681005 13.477877
9.833070 3.803904 11.287500
-2.494760 3.707370 12.626950
10.775240 3.707370 12.626950
11.321964 1.123933 13.147680
10.765951 1.445713 5.509805
-5.088514 8.808738 13.477877
8.181486 8.808738 13.477877
-4.671703 7.477947 12.626950
8.598297 7.477947 12.626950
9.769374 0.000000 0.000000
9.769374 0.000000 15.050000
3.134374 11.492157 0.000000
3.134374 11.492157 15.050000
3.097152 -0.002413 5.952877
-3.537848 11.489744 5.952877
4.458056 -0.306841 5.101950
-2.176943 11.185317 5.101950
4.884687 8.460526 7.525000
1.550666 2.681005 13.477877
2.494760 3.707370 12.626950
-4.884687 8.460526 0.000000
-4.884687 8.460526 15.050000
8.385313 8.460526 0.000000
8.385313 8.460526 15.050000
-1.546486 2.683419 5.952877
11.723514 2.683419 5.952877
-1.963296 4.014210 5.101950
11.306703 4.014210 5.101950
3.500626 0.000000 7.525000
-3.134374 11.492157 7.525000
10.172848 0.002413 13.477877
3.537848 11.494570 13.477877
8.811943 0.306841 12.626950
2.176944 11.798998 12.626950
1.750313 3.031631 0.000000
1.750313 3.031631 15.050000
5.084334 8.811152 5.952877
4.140240 7.784787 5.101950
-1.750313 3.031631 7.525000
11.519687 3.031631 7.525000
3.097152 0.002413 9.097123
-3.537848 11.494570 9.097123
4.458056 0.306841 9.948050
-2.176943 11.798998 9.948050
1.546486 2.683419 1.572123
1.963297 4.014210 2.423050
-1.550666 2.681005 9.097123
11.719334 2.681005 9.097123
-2.494760 3.707370 9.948050
10.775240 3.707370 9.948050
10.172848 -0.002413 1.572123
3.537848 11.489744 1.572123
8.811943 -0.306841 2.423050
2.176944 11.185317 2.423050
5.088514 8.808738 9.097123
4.671704 7.477947 9.948050
-5.084334 8.811152 1.572123
8.185666 8.811152 1.572123
-4.140240 7.784787 2.423050
9.129760 7.784787 2.423050
LINES 176 528
2 0 3
2 0 5
2 0 28
2 1 4
2 1 19
2 1 30
2 2 3
2 2 11
2 2 33
2 2 124
2 5 142
2 6 56
2 6 144
2 7 45
2 8 84
2 9 46
2 10 85
2 11 92
2 12 47
2 12 67
2 13 16
2 13 18
2 13 41
2 14 17
2 14 27
2 14 42
2 15 16
2 15 21
2 15 44
2 15 130
2 18 145
2 19 148
2 20 56
2 20 91
2 21 98
2 22 57
2 22 73
2 23 25
2 23 26
2 23 40
2 23 52
2 24 25
2 24 32
2 24 55
2 24 135
2 26 149
2 27 152
2 29 96
2 31 97
2 32 67
2 33 79
2 34 37
2 34 51
2 34 61
2 35 38
2 35 39
2 35 62
2 36 38
2 36 43
2 36 64
2 36 106
2 39 152
2 40 155
2 41 65
2 42 66
2 43 73
2 44 86
2 45 48
2 45 60
2 46 49
2 46 50
2 47 49
2 47 54
2 47 114
2 50 154
2 51 139
2 53 72
2 54 79
2 55 92
2 56 58
2 56 59
2 57 58
2 57 63
2 57 117
2 59 138
2 60 142
2 61 77
2 62 78
2 63 86
2 64 98
2 65 68
2 65 102
2 66 69
2 66 70
2 67 69
2 67 151
2 70 134
2 71 72
2 71 129
2 72 74
2 72 75
2 73 74
2 73 153
2 75 104
2 76 78
2 76 134
2 77 80
2 77 82
2 78 81
2 79 80
2 79 156
2 82 112
2 83 85
2 83 103
2 84 87
2 84 89
2 85 88
2 86 87
2 86 140
2 89 116
2 90 91
2 90 111
2 91 93
2 91 94
2 92 93
2 92 143
2 94 122
2 95 96
2 95 116
2 96 99
2 97 100
2 97 101
2 98 100
2 98 147
2 101 128
2 102 123
2 103 105
2 103 119
2 104 106
2 104 121
2 107 148
2 108 128
2 109 149
2 110 129
2 111 113
2 111 126
2 112 114
2 112 127
2 115 134
2 115 152
2 116 117
2 116 133
2 118 154
2 120 155
2 122 124
2 122 136
2 123 125
2 123 137
2 126 138
2 127 139
2 128 130
2 129 131
2 132 142
2 134 135
2 136 144
2 137 145
2 138 140
2 139 141
2 142 143
2 144 146
2 145 147
2 148 150
2 149 151
2 152 153
2 154 156
2 155 157
POINT_DATA 158
SCALARS my_scalars float
LOOKUP_TABLE default
2.1
2.1
2.1
1.52
1.52
1.52
1.52
1.52
1.52
1.52
1.52
1.52
1.52
2.1
2.1
2.1
1.52
1.52
1.52
1.52
1.52
1.52
1.52
2.1
2.1
1.52
1.52
1.52
1.52
1.52
1.52
1.52
1.52
1.52
2.1
2.1
2.1
1.52
1.52
1.52
1.52
1.52
1.52
1.52
1.52
2.1
2.1
2.1
1.52
1.52
1.52
1.52
1.52
1.52
1.52
1.52
2.1
2.1
1.52
1.52
1.52
1.52
1.52
1.52
1.52
2.1
2.1
2.1
1.52
1.52
1.52
1.52
2.1
2.1
1.52
1.52
1.52
2.1
2.1
2.1
1.52
1.52
1.52
1.52
2.1
2.1
2.1
1.52
1.52
1.52
1.52
2.1
2.1
1.52
1.52
1.52
2.1
2.1
2.1
1.52
1.52
1.52
1.52
2.1
2.1
1.52
1.52
1.52
1.52
1.52
1.52
2.1
2.1
1.52
1.52
1.52
2.1
1.52
1.52
1.52
1.52
1.52
2.1
2.1
1.52
1.52
1.52
1.52
2.1
2.1
1.52
1.52
1.52
1.52
2.1
1.52
1.52
1.52
2.1
2.1
1.52
1.52
2.1
1.52
2.1
2.1
1.52
1.52
2.1
2.1
1.52
1.52
2.1
1.52
2.1
2.1
1.52
1.52
VECTORS vectors float
0.125 0 0
0.125 0 0
0.125 0 0
0.03125 0 0
0.03125 0 0
0.03125 0 0
0.03125 0 0
0.03125 0 0
0.03125 0 0
0.03125 0 0
0.03125 0 0
0.03125 0 0
0.03125 0 0
0.125 0 0
0.125 0 0
0.125 0 0
0.03125 0 0
0.03125 0 0
0.03125 0 0
0.03125 0 0
0.03125 0 0
0.03125 0 0
0.03125 0 0
0.125 0 0
0.125 0 0
0.03125 0 0
0.03125 0 0
0.03125 0 0
0.03125 0 0
0.03125 0 0
0.03125 0 0
0.03125 0 0
0.03125 0 0
0.03125 0 0
0.125 0 0
0.125 0 0
0.125 0 0
0.03125 0 0
0.03125 0 0
0.03125 0 0
0.03125 0 0
0.03125 0 0
0.03125 0 0
0.03125 0 0
0.03125 0 0
0.125 0 0
0.125 0 0
0.125 0 0
0.03125 0 0
0.03125 0 0
0.03125 0 0
0.03125 0 0
0.03125 0 0
0.03125 0 0
0.03125 0 0
0.03125 0 0
0.125 0 0
0.125 0 0
0.03125 0 0
0.03125 0 0
0.03125 0 0
0.03125 0 0
0.03125 0 0
0.03125 0 0
0.03125 0 0
0.125 0 0
0.125 0 0
0.125 0 0
0.03125 0 0
0.03125 0 0
0.03125 0 0
0.03125 0 0
0.125 0 0
0.125 0 0
0.03125 0 0
0.03125 0 0
0.03125 0 0
0.125 0 0
0.125 0 0
0.125 0 0
0.03125 0 0
0.03125 0 0
0.03125 0 0
0.03125 0 0
0.125 0 0
0.125 0 0
0.125 0 0
0.03125 0 0
0.03125 0 0
0.03125 0 0
0.03125 0 0
0.125 0 0
0.125 0 0
0.03125 0 0
0.03125 0 0
0.03125 0 0
0.125 0 0
0.125 0 0
0.125 0 0
0.03125 0 0
0.03125 0 0
0.03125 0 0
0.03125 0 0
0.125 0 0
0.125 0 0
0.03125 0 0
0.03125 0 0
0.03125 0 0
0.03125 0 0
0.03125 0 0
0.03125 0 0
0.125 0 0
0.125 0 0
0.03125 0 0
0.03125 0 0
0.03125 0 0
0.125 0 0
0.03125 0 0
0.03125 0 0
0.03125 0 0
0.03125 0 0
0.03125 0 0
0.125 0 0
0.125 0 0
0.03125 0 0
0.03125 0 0
0.03125 0 0
0.03125 0 0
0.125 0 0
0.125 0 0
0.03125 0 0
0.03125 0 0
0.03125 0 0
0.03125 0 0
0.125 0 0
0.03125 0 0
0.03125 0 0
0.03125 0 0
0.125 0 0
0.125 0 0
0.03125 0 0
0.03125 0 0
0.125 0 0
0.03125 0 0
0.125 0 0
0.125 0 0
0.03125 0 0
0.03125 0 0
0.125 0 0
0.125 0 0
0.03125 0 0
0.03125 0 0
0.125 0 0
0.03125 0 0
0.125 0 0
0.125 0 0
0.03125 0 0
0.03125 0 0
