Compiler and run-time data
===========================================================================
RASPA 2.0.45
Compiled as a 64-bits application
Compiler: gcc Apple LLVM 12.0.5 (clang-1205.0.22.9)
Compile Date = May 18 2021, Compile Time = 12:54:12

Wed May 19 12:15:56 2021
Simulation started on Wednesday, May 19.
The start time was 12:15 PM.

Cpu data:    x86_64
Cpu Model:   MacPro7,1
Host name:   MacPro.local
OS release:  20.4.0
OS type:     Darwin
OS version:  20E232


Simulation
===========================================================================
Dimensions: 3
Random number seed: 1621419356
RASPA directory set to: /Users/dubbelda/RASPA/simulations/
String appended to output-files: 
Number of cycles: 250000
Number of initializing cycles: 0
Number of equilibration cycles: 50000
Print every: 5000
Rectangular boundary condition applied
Timestep: 0.000500
	Degrees of freedom:                        10
	Translational Degrees of freedom:          6
	Rotational Degrees of freedom:             4
	Degrees of freedom Framework:              0


Mutual consistent basic set of units:
======================================
Unit of temperature: Kelvin
Unit of length:      1e-10 [m]
Unit of time:        1e-12 [s]
Unit of mass:        1.66054e-27 [kg]
Unit of charge:      1.60218e-19 [C/particle]

Derived units and their conversion factors:
===========================================
Unit of energy:              1.66054e-23 [J]
Unit of force:               1.66054e-13 [N]
Unit of pressure:            1.66054e+07 [Pa]
Unit of velocity:            100 [m/s]
Unit of acceleration:        1e-08 [m^2/s]
Unit of diffusion:           1e-08 [m^2/s]
Unit of dipole moment:       1.60218e-29 [C.m]
Unit of electric potential:  0.000103643 [V]
Unit of electric field:      1.03643e+06 [V]
Unit of polarizability:      1.54587e-35 [-]
Unit of Coulomb potential:   167101.0800066561  [K]
Unit of dielectric constant: 0.0000154587       [s^2 C^2/(kg m^3)]
Unit of wave vectors:        5.3088374589       [cm^1]
Boltzmann constant:          0.8314464919       [-]

Internal conversion factors:
===========================================
Energy to Kelvin:                                    1.2027242847
FH correction factor                                 2.0211930949
Heat capacity conversion factor:                    10.0000088723
From Debye to internal units:                        4.8032067991
Isothermal compressibility conversion factor:        0.0000000602

Energy conversion factors:
===========================================
From mdyne/A to kcal/mol/A^2:           143.933
From mdyne/A to kj/mol/A^2:             602.214
From mdyne/A to K/A^2:                  72429.7
From mdyne A/rad^2 to kcal/mol/deg^2:   0.0438444


Properties computed
===========================================================================
Movies: no
Radial Distribution Function: no
Number of molecules GCMC histogram: no
Histogram of the molecule positions: no
Free energy profiles: no
Pore Size Distribution Function: no
End-to-end distance: no
Histogram of the energy of the system: no
Compute thermodynamic factors: no
Framework spacing histograms: no
Residence times histograms: no
Distance histograms: no
Bend Angle histograms: no
Dihedral angle histograms: no
Angle between planes histograms: no
Molecule properties: no
Infra-red spectra: no
Mean-squared displacement using modified order-N algorithm: no
Velocity-autocorrelation function modified order-N algorithm: no
Rotational velocity-autocorrelation function modified order-N algorithm: no
Molecular orientation-autocorrelation function modified order-N algorithm: no
Bond orientation-autocorrelation function modified order-N algorithm: no
Mean-squared displacement (conventional algorithm): no
Velocity-autocorrelation function (conventional algorithm): no
3D density grid for adsorbates: no
Compute cation an/or adsorption sites: no
dcTST snapshots: no
Compute pressure and stress: no


VTK
===========================================================================
VTK fractional-range position framework atoms: [-0.001000,1.001000] [-0.001000,1.001000] [-0.001000,1.001000]
VTK fractional-range position framework bonds: [-0.151000,1.151000] [-0.151000,1.151000] [-0.151000,1.151000]
VTK fractional-range com-position adsorbate molecules: [-0.101000,1.101000] [-0.101000,1.101000] [-0.101000,1.101000]
VTK fractional-range com-position cation molecules: [-0.101000,1.101000] [-0.101000,1.101000] [-0.101000,1.101000]
	3D free energy grid made for the full simulation-cell


Thermo/Baro-stat NHC parameters
===========================================================================
External temperature: 300 [K]
Beta: 0.00400908 [energy unit]
External Pressure: 100000 [Pa]


Thermostat chain-length: 3
Timescale parameter for thermostat: 0.150000 [ps]
Barostat chain-length:   3
Timescale parameter for barostat:   0.150000 [ps]

Number of Yoshida-Suzuki decomposition steps: 5
Number of respa steps: 5


Method and settings for electrostatics
===============================================================================
Dielectric constant of the medium : 1.000000
Charge from charge-equilibration: no
Ewald summation is used (exact solution of a periodic system)
Relative precision                : 1e-06
Alpha convergence parameter       : 0.265058
kvec (x,y,z)                      : 6 6 11


CFC-RXMC parameters
===========================================================================
Number of reactions: 0


Rattle parameters
===========================================================================
Distance constraint type: r^2-r^2_0
Bend angle constraint type: theta-theta_0
Dihedral angle constraint type: phi-phi_0
Inversion-bend angle constraint type: chi-chi_0
Out-of-plane distance constraint type: r-r_0


Spectra parameters
===========================================================================
Compute normal modes: no


Minimization parameters
===========================================================================
Generalized coordinates are: Cartesian center-of-mass, elements of the orientational matrix p1,p2,p3 and strain
Potential derivatives are evaluated: analytically
Translation of the system is removed from the generalized Hessian: no
Rotation of the system is removed from the generalized Hessian: no
Maximum step-length: 0.3
Convergence factor: 1
Maximum number of minimization steps: 10000
Use gradients in the line-minimizations: yes
RMS gradient tolerance: 1e-06
Maximum gradient tolerance: 1e-06

Distance constraints: 0
Angle constraints: 0
Dihedral constraints: 0

Improper dihedral constraints: 0

Inversion-bend constraints: 0

Out-of-plane constraints: 0

Harmonic distance constraints: 0
Harmonic angle constraints: 0
Harmonic dihedral constraints: 0

Dihedral mid-point measurements: 0

All framework atoms are fixed

Fixed adsorbate atoms:  
Fixed adsorbate groups (center-of-mass):  
Fixed adsorbate groups (orientation):  

Fixed cation atoms:  
Fixed cation groups (center-of-mass):  
Fixed cation groups (orientation):  


dcTST parameters
===========================================================================
Free energy profiles computed: no
Free energy profiles written every 5000 cycles
Free energy mapping: mapped to a,b,c-coordinates
BarrierPosition:       0.0000000000       0.0000000000       0.0000000000
BarrierNormal:         0.0000000000       0.0000000000       0.0000000000
Start with a molecule on top of the barrier: no
Maximum distance to barrier (e.g. distance to minumum free energy):       0.0000000000 [A]
Maximum trajectory time:      10.0000000000 [ps]
Each configuration is used with 5 different initial velocities


Cbmc parameters
===========================================================================
Biasing method: using only the VDW part
Number of trial positions:                                       10
Number of trial positions (reinsertion):                         10
Number of trial positions (partial reinsertion):                 10
Number of trial positions (identity-change):                     10
Number of trial positions (Gibbs particle transfer):             10
Number of trial positions (insertion/deletion):                  10
Number of trial positions (Widom insertion):                     10
Number of trial positions coupled Torsion-selection:             100
Number of trial positions first bead:                            10
Number of trial positions first bead (reinsertion):              10
Number of trial positions first bead (partial reinsertion):      10
Number of trial positions first bead (identity-change):          10
Number of trial positions first bead (Gibbs particle transfer):  10
Number of trial positions first bead (insertion/deletion):       10
Number of trial positions first bead (Widom insertion):          10
Number of trial moves per open bead:                             150
Target acceptance ratio small-mc scheme:                         0.400000
Energy overlap criteria:                                         1e+07
Minimal Rosenbluth factor:                                       1e-150


Pseudo atoms: 23
===========================================================================
Pseudo Atom[   0] Name UNIT     Oxidation:          Element: H    pdb-name: H    Scat. Types:   1   1 Mass=1.000000000  B-factor:0.000   
                 Charge=1.000000000          Polarization=0.000000000  [A^3] (considered a charged atom and no polarization)  Interactions: yes
                 Anisotropic factor:    0.000 [-] (Absolute), Radius:    1.000 [A], Framework-atom:  no
Pseudo Atom[   1] Name He       Oxidation: +0       Element: He   pdb-name: He   Scat. Types:   3   2 Mass=4.002602000  B-factor:1.000   
                 Charge=1.000000000          Polarization=0.000000000  [A^3] (considered a charged atom and no polarization)  Interactions: yes
                 Anisotropic factor:    0.000 [-] (Absolute), Radius:    1.000 [A], Framework-atom:  no
Pseudo Atom[   2] Name Zn       Oxidation: +0       Element: Zn   pdb-name: Zn   Scat. Types:  31  30 Mass=65.370000000 B-factor:1.000   
                 Charge=1.183200000    (av)  Polarization=0.000000000  [A^3] (considered a charged atom and no polarization)  Interactions: yes
                 Anisotropic factor:    0.000 [-] (Absolute), Radius:    1.348 [A], Framework-atom: yes (charge from structure file)
Pseudo Atom[   3] Name O1       Oxidation: +0       Element: O    pdb-name: O    Scat. Types:   9   8 Mass=15.999400000 B-factor:1.000   
                 Charge=-0.737200000   (av)  Polarization=0.000000000  [A^3] (considered a charged atom and no polarization)  Interactions: yes
                 Anisotropic factor:    0.000 [-] (Absolute), Radius:    0.680 [A], Framework-atom: yes (charge from structure file)
Pseudo Atom[   4] Name O2       Oxidation: +0       Element: O    pdb-name: O    Scat. Types:   9   8 Mass=15.999400000 B-factor:1.000   
                 Charge=-0.737200000   (av)  Polarization=0.000000000  [A^3] (considered a charged atom and no polarization)  Interactions: yes
                 Anisotropic factor:    0.000 [-] (Absolute), Radius:    0.680 [A], Framework-atom: yes (charge from structure file)
Pseudo Atom[   5] Name C2       Oxidation: +0       Element: C    pdb-name: C    Scat. Types:   7   6 Mass=12.010700000 B-factor:1.000   
                 Charge=0.790400000    (av)  Polarization=0.000000000  [A^3] (considered a charged atom and no polarization)  Interactions: yes
                 Anisotropic factor:    0.000 [-] (Absolute), Radius:    0.720 [A], Framework-atom: yes (charge from structure file)
Pseudo Atom[   6] Name Ca1      Oxidation: +0       Element: C    pdb-name: C    Scat. Types:   7   6 Mass=12.010700000 B-factor:1.000   
                 Charge=-0.050300000   (av)  Polarization=0.000000000  [A^3] (considered a charged atom and no polarization)  Interactions: yes
                 Anisotropic factor:    0.000 [-] (Absolute), Radius:    0.720 [A], Framework-atom: yes (charge from structure file)
Pseudo Atom[   7] Name Ca2      Oxidation: +0       Element: C    pdb-name: C    Scat. Types:   7   6 Mass=12.010700000 B-factor:1.000   
                 Charge=-0.095500000   (av)  Polarization=0.000000000  [A^3] (considered a charged atom and no polarization)  Interactions: yes
                 Anisotropic factor:    0.000 [-] (Absolute), Radius:    0.720 [A], Framework-atom: yes (charge from structure file)
Pseudo Atom[   8] Name Ca3      Oxidation: +0       Element: C    pdb-name: C    Scat. Types:   7   6 Mass=12.010700000 B-factor:1.000   
                 Charge=0.000000000          Polarization=0.000000000  [A^3] (considered a chargeless atom and no polarization)  Interactions: yes
                 Anisotropic factor:    0.000 [-] (Absolute), Radius:    0.720 [A], Framework-atom:  no
Pseudo Atom[   9] Name Ca4      Oxidation: +0       Element: C    pdb-name: C    Scat. Types:   7   6 Mass=12.010700000 B-factor:1.000   
                 Charge=0.000000000          Polarization=0.000000000  [A^3] (considered a chargeless atom and no polarization)  Interactions: yes
                 Anisotropic factor:    0.000 [-] (Absolute), Radius:    0.720 [A], Framework-atom:  no
Pseudo Atom[  10] Name Ca5      Oxidation: +0       Element: C    pdb-name: C    Scat. Types:   7   6 Mass=12.010700000 B-factor:1.000   
                 Charge=0.000000000          Polarization=0.000000000  [A^3] (considered a chargeless atom and no polarization)  Interactions: yes
                 Anisotropic factor:    0.000 [-] (Absolute), Radius:    0.720 [A], Framework-atom:  no
Pseudo Atom[  11] Name Ha       Oxidation: +0       Element: H    pdb-name: H    Scat. Types:   1   1 Mass=1.007940000  B-factor:1.000   
                 Charge=0.101800000    (av)  Polarization=0.000000000  [A^3] (considered a charged atom and no polarization)  Interactions: yes
                 Anisotropic factor:    0.000 [-] (Absolute), Radius:    0.320 [A], Framework-atom: yes (charge from structure file)
Pseudo Atom[  12] Name H2       Oxidation: +0       Element: H    pdb-name: H    Scat. Types:   1   1 Mass=1.007940000  B-factor:1.000   
                 Charge=0.037200000    (av)  Polarization=0.000000000  [A^3] (considered a charged atom and no polarization)  Interactions: yes
                 Anisotropic factor:    0.000 [-] (Absolute), Radius:    0.320 [A], Framework-atom: yes (charge from structure file)
Pseudo Atom[  13] Name N3       Oxidation: +0       Element: N    pdb-name: N    Scat. Types:   8   7 Mass=14.006740000 B-factor:1.000   
                 Charge=0.041500000    (av)  Polarization=0.000000000  [A^3] (considered a charged atom and no polarization)  Interactions: yes
                 Anisotropic factor:    0.000 [-] (Absolute), Radius:    0.680 [A], Framework-atom: yes (charge from structure file)
Pseudo Atom[  14] Name C3       Oxidation: +0       Element: C    pdb-name: C    Scat. Types:   7   6 Mass=12.010700000 B-factor:1.000   
                 Charge=-0.001500000   (av)  Polarization=0.000000000  [A^3] (considered a charged atom and no polarization)  Interactions: yes
                 Anisotropic factor:    0.000 [-] (Absolute), Radius:    0.720 [A], Framework-atom: yes (charge from structure file)
Pseudo Atom[  15] Name Cm       Oxidation: +0       Element: C    pdb-name: C    Scat. Types:   7   6 Mass=12.010700000 B-factor:1.000   
                 Charge=0.000000000          Polarization=0.000000000  [A^3] (considered a chargeless atom and no polarization)  Interactions: yes
                 Anisotropic factor:    0.000 [-] (Absolute), Radius:    0.720 [A], Framework-atom:  no
Pseudo Atom[  16] Name Hm       Oxidation: +0       Element: H    pdb-name: H    Scat. Types:   1   1 Mass=1.007940000  B-factor:1.000   
                 Charge=0.000000000          Polarization=0.000000000  [A^3] (considered a chargeless atom and no polarization)  Interactions: yes
                 Anisotropic factor:    0.000 [-] (Absolute), Radius:    0.320 [A], Framework-atom:  no
Pseudo Atom[  17] Name Cl       Oxidation: +0       Element: H    pdb-name: Cl   Scat. Types:   1  17 Mass=35.453000000 B-factor:1.000   
                 Charge=0.000000000          Polarization=0.000000000  [A^3] (considered a chargeless atom and no polarization)  Interactions: yes
                 Anisotropic factor:    0.000 [-] (Absolute), Radius:    1.000 [A], Framework-atom:  no
Pseudo Atom[  18] Name F        Oxidation: +0       Element: H    pdb-name: F    Scat. Types:   1   9 Mass=18.998403000 B-factor:1.000   
                 Charge=0.000000000          Polarization=0.000000000  [A^3] (considered a chargeless atom and no polarization)  Interactions: yes
                 Anisotropic factor:    0.000 [-] (Absolute), Radius:    0.600 [A], Framework-atom:  no
Pseudo Atom[  19] Name C_co2    Oxidation: +0       Element: C    pdb-name: C    Scat. Types:   7   6 Mass=12.000000000 B-factor:1.000   
                 Charge=0.700000000          Polarization=0.000000000  [A^3] (considered a charged atom and no polarization)  Interactions: yes
                 Anisotropic factor:    0.000 [-] (Absolute), Radius:    0.720 [A], Framework-atom:  no
Pseudo Atom[  20] Name O_co2    Oxidation: +0       Element: O    pdb-name: O    Scat. Types:   9   8 Mass=15.999400000 B-factor:1.000   
                 Charge=-0.350000000         Polarization=0.000000000  [A^3] (considered a charged atom and no polarization)  Interactions: yes
                 Anisotropic factor:    0.000 [-] (Absolute), Radius:    0.680 [A], Framework-atom:  no
Pseudo Atom[  21] Name N_n2     Oxidation: +0       Element: N    pdb-name: N    Scat. Types:   8   7 Mass=14.006740000 B-factor:1.000   
                 Charge=-0.482000000         Polarization=0.000000000  [A^3] (considered a charged atom and no polarization)  Interactions: yes
                 Anisotropic factor:    0.000 [-] (Absolute), Radius:    0.700 [A], Framework-atom:  no
Pseudo Atom[  22] Name N_com    Oxidation: +0       Element: N    pdb-name: N    Scat. Types:   8   7 Mass=0.000000000  B-factor:1.000   
                 Charge=0.964000000          Polarization=0.000000000  [A^3] (considered a charged atom and no polarization)  Interactions: yes
                 Anisotropic factor:    0.000 [-] (Absolute), Radius:    0.700 [A], Framework-atom:  no


Forcefield: local
===========================================================================
Minimal distance: 1
CutOff VDW : 10.000000 (100.000000)
CutOff VDW switching on: 9.000000 (81.000000)
CutOff charge-charge : 12.000000 (144.000000)
CutOff charge-charge switching on: 7.800000 (60.840000)
CutOff charge-bonddipole : 12.000000 (144.000000)
CutOff charge-bondipole switching on: 8.400000 (70.560000)
CutOff bonddipole-bonddipole : 12.000000 (144.000000)
CutOff bonddipole-bondipole switching on: 9.000000 (81.000000)
Polarization is neglected
TailCorrections are used
All potentials are unshifted !!!!!!

General mixing rule: Lorentz-Berthelot mixing rules are used FIRST for cross terms
0 cross terms are overwritten using the individual mixing rules from the file 'force_field_mixing_rules.def'
and then 0 terms are overwritten using the specific interactions from the file 'force_field.def'

The force field and all the interactions:
     He -   N_com [ZERO_POTENTIAL_CONTINUOUS_FRACTIONAL]
     Zn -      Zn [LENNARD_JONES] p_0/k_B:   6.29024 [K], p_1: 2.49450 [A], shift/k_B:   0.00000000 [K], tailcorrection: yes
     Zn -      O1 [LENNARD_JONES] p_0/k_B:  25.78232 [K], p_1: 2.72720 [A], shift/k_B:   0.00000000 [K], tailcorrection: yes
     Zn -      O2 [LENNARD_JONES] p_0/k_B:  25.78232 [K], p_1: 2.72720 [A], shift/k_B:   0.00000000 [K], tailcorrection: yes
     Zn -      C2 [LENNARD_JONES] p_0/k_B:  16.49915 [K], p_1: 2.94710 [A], shift/k_B:   0.00000000 [K], tailcorrection: yes
     Zn -     Ca1 [LENNARD_JONES] p_0/k_B:  16.49915 [K], p_1: 2.94710 [A], shift/k_B:   0.00000000 [K], tailcorrection: yes
     Zn -     Ca2 [LENNARD_JONES] p_0/k_B:  16.49915 [K], p_1: 2.94710 [A], shift/k_B:   0.00000000 [K], tailcorrection: yes
     Zn -     Ca3 [LENNARD_JONES] p_0/k_B:  16.49915 [K], p_1: 2.94710 [A], shift/k_B:   0.00000000 [K], tailcorrection: yes
     Zn -     Ca4 [LENNARD_JONES] p_0/k_B:  16.49915 [K], p_1: 2.94710 [A], shift/k_B:   0.00000000 [K], tailcorrection: yes
     Zn -     Ca5 [LENNARD_JONES] p_0/k_B:  16.49915 [K], p_1: 2.94710 [A], shift/k_B:   0.00000000 [K], tailcorrection: yes
     Zn -      Ha [LENNARD_JONES] p_0/k_B:   6.89062 [K], p_1: 2.54705 [A], shift/k_B:   0.00000000 [K], tailcorrection: yes
     Zn -      H2 [LENNARD_JONES] p_0/k_B:   7.04956 [K], p_1: 2.48290 [A], shift/k_B:   0.00000000 [K], tailcorrection: yes
     Zn -      N3 [LENNARD_JONES] p_0/k_B:  23.19727 [K], p_1: 2.87225 [A], shift/k_B:   0.00000000 [K], tailcorrection: yes
     Zn -      C3 [LENNARD_JONES] p_0/k_B:  18.60891 [K], p_1: 2.94710 [A], shift/k_B:   0.00000000 [K], tailcorrection: yes
     Zn -      Cm [LENNARD_JONES] p_0/k_B:  18.60891 [K], p_1: 2.94710 [A], shift/k_B:   0.00000000 [K], tailcorrection: yes
     Zn -      Hm [LENNARD_JONES] p_0/k_B:   6.89062 [K], p_1: 2.54705 [A], shift/k_B:   0.00000000 [K], tailcorrection: yes
     Zn -      Cl [LENNARD_JONES] p_0/k_B:  28.96245 [K], p_1: 2.98270 [A], shift/k_B:   0.00000000 [K], tailcorrection: yes
     Zn -       F [LENNARD_JONES] p_0/k_B:  13.89560 [K], p_1: 2.80635 [A], shift/k_B:   0.00000000 [K], tailcorrection: yes
     Zn -   C_co2 [LENNARD_JONES_CONTINUOUS_FRACTIONAL] p_0/k_B:  13.03214 [K], p_1: 2.64725 [A], shift/k_B:   0.00000000 [K], tailcorrection: yes
     Zn -   O_co2 [LENNARD_JONES_CONTINUOUS_FRACTIONAL] p_0/k_B:  22.29191 [K], p_1: 2.77225 [A], shift/k_B:   0.00000000 [K], tailcorrection: yes
     Zn -    N_n2 [LENNARD_JONES_CONTINUOUS_FRACTIONAL] p_0/k_B:  15.04821 [K], p_1: 2.90225 [A], shift/k_B:   0.00000000 [K], tailcorrection: yes
     Zn -   N_com [ZERO_POTENTIAL_CONTINUOUS_FRACTIONAL]
     O1 -      O1 [LENNARD_JONES] p_0/k_B: 105.67607 [K], p_1: 2.95990 [A], shift/k_B:   0.00000000 [K], tailcorrection: yes
     O1 -      O2 [LENNARD_JONES] p_0/k_B: 105.67607 [K], p_1: 2.95990 [A], shift/k_B:   0.00000000 [K], tailcorrection: yes
     O1 -      C2 [LENNARD_JONES] p_0/k_B:  67.62640 [K], p_1: 3.17980 [A], shift/k_B:   0.00000000 [K], tailcorrection: yes
     O1 -     Ca1 [LENNARD_JONES] p_0/k_B:  67.62640 [K], p_1: 3.17980 [A], shift/k_B:   0.00000000 [K], tailcorrection: yes
     O1 -     Ca2 [LENNARD_JONES] p_0/k_B:  67.62640 [K], p_1: 3.17980 [A], shift/k_B:   0.00000000 [K], tailcorrection: yes
     O1 -     Ca3 [LENNARD_JONES] p_0/k_B:  67.62640 [K], p_1: 3.17980 [A], shift/k_B:   0.00000000 [K], tailcorrection: yes
     O1 -     Ca4 [LENNARD_JONES] p_0/k_B:  67.62640 [K], p_1: 3.17980 [A], shift/k_B:   0.00000000 [K], tailcorrection: yes
     O1 -     Ca5 [LENNARD_JONES] p_0/k_B:  67.62640 [K], p_1: 3.17980 [A], shift/k_B:   0.00000000 [K], tailcorrection: yes
     O1 -      Ha [LENNARD_JONES] p_0/k_B:  28.24312 [K], p_1: 2.77975 [A], shift/k_B:   0.00000000 [K], tailcorrection: yes
     O1 -      H2 [LENNARD_JONES] p_0/k_B:  28.89461 [K], p_1: 2.71560 [A], shift/k_B:   0.00000000 [K], tailcorrection: yes
     O1 -      N3 [LENNARD_JONES] p_0/k_B:  95.08050 [K], p_1: 3.10495 [A], shift/k_B:   0.00000000 [K], tailcorrection: yes
     O1 -      C3 [LENNARD_JONES] p_0/k_B:  76.27385 [K], p_1: 3.17980 [A], shift/k_B:   0.00000000 [K], tailcorrection: yes
     O1 -      Cm [LENNARD_JONES] p_0/k_B:  76.27385 [K], p_1: 3.17980 [A], shift/k_B:   0.00000000 [K], tailcorrection: yes
     O1 -      Hm [LENNARD_JONES] p_0/k_B:  28.24312 [K], p_1: 2.77975 [A], shift/k_B:   0.00000000 [K], tailcorrection: yes
     O1 -      Cl [LENNARD_JONES] p_0/k_B: 118.71072 [K], p_1: 3.21540 [A], shift/k_B:   0.00000000 [K], tailcorrection: yes
     O1 -       F [LENNARD_JONES] p_0/k_B:  56.95501 [K], p_1: 3.03905 [A], shift/k_B:   0.00000000 [K], tailcorrection: yes
     O1 -   C_co2 [LENNARD_JONES_CONTINUOUS_FRACTIONAL] p_0/k_B:  53.41586 [K], p_1: 2.87995 [A], shift/k_B:   0.00000000 [K], tailcorrection: yes
     O1 -   O_co2 [LENNARD_JONES_CONTINUOUS_FRACTIONAL] p_0/k_B:  91.36963 [K], p_1: 3.00495 [A], shift/k_B:   0.00000000 [K], tailcorrection: yes
     O1 -    N_n2 [LENNARD_JONES_CONTINUOUS_FRACTIONAL] p_0/k_B:  61.67932 [K], p_1: 3.13495 [A], shift/k_B:   0.00000000 [K], tailcorrection: yes
     O1 -   N_com [ZERO_POTENTIAL_CONTINUOUS_FRACTIONAL]
     O2 -      O2 [LENNARD_JONES] p_0/k_B: 105.67607 [K], p_1: 2.95990 [A], shift/k_B:   0.00000000 [K], tailcorrection: yes
     O2 -      C2 [LENNARD_JONES] p_0/k_B:  67.62640 [K], p_1: 3.17980 [A], shift/k_B:   0.00000000 [K], tailcorrection: yes
     O2 -     Ca1 [LENNARD_JONES] p_0/k_B:  67.62640 [K], p_1: 3.17980 [A], shift/k_B:   0.00000000 [K], tailcorrection: yes
     O2 -     Ca2 [LENNARD_JONES] p_0/k_B:  67.62640 [K], p_1: 3.17980 [A], shift/k_B:   0.00000000 [K], tailcorrection: yes
     O2 -     Ca3 [LENNARD_JONES] p_0/k_B:  67.62640 [K], p_1: 3.17980 [A], shift/k_B:   0.00000000 [K], tailcorrection: yes
     O2 -     Ca4 [LENNARD_JONES] p_0/k_B:  67.62640 [K], p_1: 3.17980 [A], shift/k_B:   0.00000000 [K], tailcorrection: yes
     O2 -     Ca5 [LENNARD_JONES] p_0/k_B:  67.62640 [K], p_1: 3.17980 [A], shift/k_B:   0.00000000 [K], tailcorrection: yes
     O2 -      Ha [LENNARD_JONES] p_0/k_B:  28.24312 [K], p_1: 2.77975 [A], shift/k_B:   0.00000000 [K], tailcorrection: yes
     O2 -      H2 [LENNARD_JONES] p_0/k_B:  28.89461 [K], p_1: 2.71560 [A], shift/k_B:   0.00000000 [K], tailcorrection: yes
     O2 -      N3 [LENNARD_JONES] p_0/k_B:  95.08050 [K], p_1: 3.10495 [A], shift/k_B:   0.00000000 [K], tailcorrection: yes
     O2 -      C3 [LENNARD_JONES] p_0/k_B:  76.27385 [K], p_1: 3.17980 [A], shift/k_B:   0.00000000 [K], tailcorrection: yes
     O2 -      Cm [LENNARD_JONES] p_0/k_B:  76.27385 [K], p_1: 3.17980 [A], shift/k_B:   0.00000000 [K], tailcorrection: yes
     O2 -      Hm [LENNARD_JONES] p_0/k_B:  28.24312 [K], p_1: 2.77975 [A], shift/k_B:   0.00000000 [K], tailcorrection: yes
     O2 -      Cl [LENNARD_JONES] p_0/k_B: 118.71072 [K], p_1: 3.21540 [A], shift/k_B:   0.00000000 [K], tailcorrection: yes
     O2 -       F [LENNARD_JONES] p_0/k_B:  56.95501 [K], p_1: 3.03905 [A], shift/k_B:   0.00000000 [K], tailcorrection: yes
     O2 -   C_co2 [LENNARD_JONES_CONTINUOUS_FRACTIONAL] p_0/k_B:  53.41586 [K], p_1: 2.87995 [A], shift/k_B:   0.00000000 [K], tailcorrection: yes
     O2 -   O_co2 [LENNARD_JONES_CONTINUOUS_FRACTIONAL] p_0/k_B:  91.36963 [K], p_1: 3.00495 [A], shift/k_B:   0.00000000 [K], tailcorrection: yes
     O2 -    N_n2 [LENNARD_JONES_CONTINUOUS_FRACTIONAL] p_0/k_B:  61.67932 [K], p_1: 3.13495 [A], shift/k_B:   0.00000000 [K], tailcorrection: yes
     O2 -   N_com [ZERO_POTENTIAL_CONTINUOUS_FRACTIONAL]
     C2 -      C2 [LENNARD_JONES] p_0/k_B:  43.27687 [K], p_1: 3.39970 [A], shift/k_B:   0.00000000 [K], tailcorrection: yes
     C2 -     Ca1 [LENNARD_JONES] p_0/k_B:  43.27687 [K], p_1: 3.39970 [A], shift/k_B:   0.00000000 [K], tailcorrection: yes
     C2 -     Ca2 [LENNARD_JONES] p_0/k_B:  43.27687 [K], p_1: 3.39970 [A], shift/k_B:   0.00000000 [K], tailcorrection: yes
     C2 -     Ca3 [LENNARD_JONES] p_0/k_B:  43.27687 [K], p_1: 3.39970 [A], shift/k_B:   0.00000000 [K], tailcorrection: yes
     C2 -     Ca4 [LENNARD_JONES] p_0/k_B:  43.27687 [K], p_1: 3.39970 [A], shift/k_B:   0.00000000 [K], tailcorrection: yes
     C2 -     Ca5 [LENNARD_JONES] p_0/k_B:  43.27687 [K], p_1: 3.39970 [A], shift/k_B:   0.00000000 [K], tailcorrection: yes
     C2 -      Ha [LENNARD_JONES] p_0/k_B:  18.07391 [K], p_1: 2.99965 [A], shift/k_B:   0.00000000 [K], tailcorrection: yes
     C2 -      H2 [LENNARD_JONES] p_0/k_B:  18.49083 [K], p_1: 2.93550 [A], shift/k_B:   0.00000000 [K], tailcorrection: yes
     C2 -      N3 [LENNARD_JONES] p_0/k_B:  60.84586 [K], p_1: 3.32485 [A], shift/k_B:   0.00000000 [K], tailcorrection: yes
     C2 -      C3 [LENNARD_JONES] p_0/k_B:  48.81072 [K], p_1: 3.39970 [A], shift/k_B:   0.00000000 [K], tailcorrection: yes
     C2 -      Cm [LENNARD_JONES] p_0/k_B:  48.81072 [K], p_1: 3.39970 [A], shift/k_B:   0.00000000 [K], tailcorrection: yes
     C2 -      Hm [LENNARD_JONES] p_0/k_B:  18.07391 [K], p_1: 2.99965 [A], shift/k_B:   0.00000000 [K], tailcorrection: yes
     C2 -      Cl [LENNARD_JONES] p_0/k_B:  75.96780 [K], p_1: 3.43530 [A], shift/k_B:   0.00000000 [K], tailcorrection: yes
     C2 -       F [LENNARD_JONES] p_0/k_B:  36.44782 [K], p_1: 3.25895 [A], shift/k_B:   0.00000000 [K], tailcorrection: yes
     C2 -   C_co2 [LENNARD_JONES_CONTINUOUS_FRACTIONAL] p_0/k_B:  34.18297 [K], p_1: 3.09985 [A], shift/k_B:   0.00000000 [K], tailcorrection: yes
     C2 -   O_co2 [LENNARD_JONES_CONTINUOUS_FRACTIONAL] p_0/k_B:  58.47113 [K], p_1: 3.22485 [A], shift/k_B:   0.00000000 [K], tailcorrection: yes
     C2 -    N_n2 [LENNARD_JONES_CONTINUOUS_FRACTIONAL] p_0/k_B:  39.47109 [K], p_1: 3.35485 [A], shift/k_B:   0.00000000 [K], tailcorrection: yes
     C2 -   N_com [ZERO_POTENTIAL_CONTINUOUS_FRACTIONAL]
    Ca1 -     Ca1 [LENNARD_JONES] p_0/k_B:  43.27687 [K], p_1: 3.39970 [A], shift/k_B:   0.00000000 [K], tailcorrection: yes
    Ca1 -     Ca2 [LENNARD_JONES] p_0/k_B:  43.27687 [K], p_1: 3.39970 [A], shift/k_B:   0.00000000 [K], tailcorrection: yes
    Ca1 -     Ca3 [LENNARD_JONES] p_0/k_B:  43.27687 [K], p_1: 3.39970 [A], shift/k_B:   0.00000000 [K], tailcorrection: yes
    Ca1 -     Ca4 [LENNARD_JONES] p_0/k_B:  43.27687 [K], p_1: 3.39970 [A], shift/k_B:   0.00000000 [K], tailcorrection: yes
    Ca1 -     Ca5 [LENNARD_JONES] p_0/k_B:  43.27687 [K], p_1: 3.39970 [A], shift/k_B:   0.00000000 [K], tailcorrection: yes
    Ca1 -      Ha [LENNARD_JONES] p_0/k_B:  18.07391 [K], p_1: 2.99965 [A], shift/k_B:   0.00000000 [K], tailcorrection: yes
    Ca1 -      H2 [LENNARD_JONES] p_0/k_B:  18.49083 [K], p_1: 2.93550 [A], shift/k_B:   0.00000000 [K], tailcorrection: yes
    Ca1 -      N3 [LENNARD_JONES] p_0/k_B:  60.84586 [K], p_1: 3.32485 [A], shift/k_B:   0.00000000 [K], tailcorrection: yes
    Ca1 -      C3 [LENNARD_JONES] p_0/k_B:  48.81072 [K], p_1: 3.39970 [A], shift/k_B:   0.00000000 [K], tailcorrection: yes
    Ca1 -      Cm [LENNARD_JONES] p_0/k_B:  48.81072 [K], p_1: 3.39970 [A], shift/k_B:   0.00000000 [K], tailcorrection: yes
    Ca1 -      Hm [LENNARD_JONES] p_0/k_B:  18.07391 [K], p_1: 2.99965 [A], shift/k_B:   0.00000000 [K], tailcorrection: yes
    Ca1 -      Cl [LENNARD_JONES] p_0/k_B:  75.96780 [K], p_1: 3.43530 [A], shift/k_B:   0.00000000 [K], tailcorrection: yes
    Ca1 -       F [LENNARD_JONES] p_0/k_B:  36.44782 [K], p_1: 3.25895 [A], shift/k_B:   0.00000000 [K], tailcorrection: yes
    Ca1 -   C_co2 [LENNARD_JONES_CONTINUOUS_FRACTIONAL] p_0/k_B:  34.18297 [K], p_1: 3.09985 [A], shift/k_B:   0.00000000 [K], tailcorrection: yes
    Ca1 -   O_co2 [LENNARD_JONES_CONTINUOUS_FRACTIONAL] p_0/k_B:  58.47113 [K], p_1: 3.22485 [A], shift/k_B:   0.00000000 [K], tailcorrection: yes
    Ca1 -    N_n2 [LENNARD_JONES_CONTINUOUS_FRACTIONAL] p_0/k_B:  39.47109 [K], p_1: 3.35485 [A], shift/k_B:   0.00000000 [K], tailcorrection: yes
    Ca1 -   N_com [ZERO_POTENTIAL_CONTINUOUS_FRACTIONAL]
    Ca2 -     Ca2 [LENNARD_JONES] p_0/k_B:  43.27687 [K], p_1: 3.39970 [A], shift/k_B:   0.00000000 [K], tailcorrection: yes
    Ca2 -     Ca3 [LENNARD_JONES] p_0/k_B:  43.27687 [K], p_1: 3.39970 [A], shift/k_B:   0.00000000 [K], tailcorrection: yes
    Ca2 -     Ca4 [LENNARD_JONES] p_0/k_B:  43.27687 [K], p_1: 3.39970 [A], shift/k_B:   0.00000000 [K], tailcorrection: yes
    Ca2 -     Ca5 [LENNARD_JONES] p_0/k_B:  43.27687 [K], p_1: 3.39970 [A], shift/k_B:   0.00000000 [K], tailcorrection: yes
    Ca2 -      Ha [LENNARD_JONES] p_0/k_B:  18.07391 [K], p_1: 2.99965 [A], shift/k_B:   0.00000000 [K], tailcorrection: yes
    Ca2 -      H2 [LENNARD_JONES] p_0/k_B:  18.49083 [K], p_1: 2.93550 [A], shift/k_B:   0.00000000 [K], tailcorrection: yes
    Ca2 -      N3 [LENNARD_JONES] p_0/k_B:  60.84586 [K], p_1: 3.32485 [A], shift/k_B:   0.00000000 [K], tailcorrection: yes
    Ca2 -      C3 [LENNARD_JONES] p_0/k_B:  48.81072 [K], p_1: 3.39970 [A], shift/k_B:   0.00000000 [K], tailcorrection: yes
    Ca2 -      Cm [LENNARD_JONES] p_0/k_B:  48.81072 [K], p_1: 3.39970 [A], shift/k_B:   0.00000000 [K], tailcorrection: yes
    Ca2 -      Hm [LENNARD_JONES] p_0/k_B:  18.07391 [K], p_1: 2.99965 [A], shift/k_B:   0.00000000 [K], tailcorrection: yes
    Ca2 -      Cl [LENNARD_JONES] p_0/k_B:  75.96780 [K], p_1: 3.43530 [A], shift/k_B:   0.00000000 [K], tailcorrection: yes
    Ca2 -       F [LENNARD_JONES] p_0/k_B:  36.44782 [K], p_1: 3.25895 [A], shift/k_B:   0.00000000 [K], tailcorrection: yes
    Ca2 -   C_co2 [LENNARD_JONES_CONTINUOUS_FRACTIONAL] p_0/k_B:  34.18297 [K], p_1: 3.09985 [A], shift/k_B:   0.00000000 [K], tailcorrection: yes
    Ca2 -   O_co2 [LENNARD_JONES_CONTINUOUS_FRACTIONAL] p_0/k_B:  58.47113 [K], p_1: 3.22485 [A], shift/k_B:   0.00000000 [K], tailcorrection: yes
    Ca2 -    N_n2 [LENNARD_JONES_CONTINUOUS_FRACTIONAL] p_0/k_B:  39.47109 [K], p_1: 3.35485 [A], shift/k_B:   0.00000000 [K], tailcorrection: yes
    Ca2 -   N_com [ZERO_POTENTIAL_CONTINUOUS_FRACTIONAL]
    Ca3 -     Ca3 [LENNARD_JONES] p_0/k_B:  43.27687 [K], p_1: 3.39970 [A], shift/k_B:   0.00000000 [K], tailcorrection: yes
    Ca3 -     Ca4 [LENNARD_JONES] p_0/k_B:  43.27687 [K], p_1: 3.39970 [A], shift/k_B:   0.00000000 [K], tailcorrection: yes
    Ca3 -     Ca5 [LENNARD_JONES] p_0/k_B:  43.27687 [K], p_1: 3.39970 [A], shift/k_B:   0.00000000 [K], tailcorrection: yes
    Ca3 -      Ha [LENNARD_JONES] p_0/k_B:  18.07391 [K], p_1: 2.99965 [A], shift/k_B:   0.00000000 [K], tailcorrection: yes
    Ca3 -      H2 [LENNARD_JONES] p_0/k_B:  18.49083 [K], p_1: 2.93550 [A], shift/k_B:   0.00000000 [K], tailcorrection: yes
    Ca3 -      N3 [LENNARD_JONES] p_0/k_B:  60.84586 [K], p_1: 3.32485 [A], shift/k_B:   0.00000000 [K], tailcorrection: yes
    Ca3 -      C3 [LENNARD_JONES] p_0/k_B:  48.81072 [K], p_1: 3.39970 [A], shift/k_B:   0.00000000 [K], tailcorrection: yes
    Ca3 -      Cm [LENNARD_JONES] p_0/k_B:  48.81072 [K], p_1: 3.39970 [A], shift/k_B:   0.00000000 [K], tailcorrection: yes
    Ca3 -      Hm [LENNARD_JONES] p_0/k_B:  18.07391 [K], p_1: 2.99965 [A], shift/k_B:   0.00000000 [K], tailcorrection: yes
    Ca3 -      Cl [LENNARD_JONES] p_0/k_B:  75.96780 [K], p_1: 3.43530 [A], shift/k_B:   0.00000000 [K], tailcorrection: yes
    Ca3 -       F [LENNARD_JONES] p_0/k_B:  36.44782 [K], p_1: 3.25895 [A], shift/k_B:   0.00000000 [K], tailcorrection: yes
    Ca3 -   C_co2 [LENNARD_JONES_CONTINUOUS_FRACTIONAL] p_0/k_B:  34.18297 [K], p_1: 3.09985 [A], shift/k_B:   0.00000000 [K], tailcorrection: yes
    Ca3 -   O_co2 [LENNARD_JONES_CONTINUOUS_FRACTIONAL] p_0/k_B:  58.47113 [K], p_1: 3.22485 [A], shift/k_B:   0.00000000 [K], tailcorrection: yes
    Ca3 -    N_n2 [LENNARD_JONES_CONTINUOUS_FRACTIONAL] p_0/k_B:  39.47109 [K], p_1: 3.35485 [A], shift/k_B:   0.00000000 [K], tailcorrection: yes
    Ca3 -   N_com [ZERO_POTENTIAL_CONTINUOUS_FRACTIONAL]
    Ca4 -     Ca4 [LENNARD_JONES] p_0/k_B:  43.27687 [K], p_1: 3.39970 [A], shift/k_B:   0.00000000 [K], tailcorrection: yes
    Ca4 -     Ca5 [LENNARD_JONES] p_0/k_B:  43.27687 [K], p_1: 3.39970 [A], shift/k_B:   0.00000000 [K], tailcorrection: yes
    Ca4 -      Ha [LENNARD_JONES] p_0/k_B:  18.07391 [K], p_1: 2.99965 [A], shift/k_B:   0.00000000 [K], tailcorrection: yes
    Ca4 -      H2 [LENNARD_JONES] p_0/k_B:  18.49083 [K], p_1: 2.93550 [A], shift/k_B:   0.00000000 [K], tailcorrection: yes
    Ca4 -      N3 [LENNARD_JONES] p_0/k_B:  60.84586 [K], p_1: 3.32485 [A], shift/k_B:   0.00000000 [K], tailcorrection: yes
    Ca4 -      C3 [LENNARD_JONES] p_0/k_B:  48.81072 [K], p_1: 3.39970 [A], shift/k_B:   0.00000000 [K], tailcorrection: yes
    Ca4 -      Cm [LENNARD_JONES] p_0/k_B:  48.81072 [K], p_1: 3.39970 [A], shift/k_B:   0.00000000 [K], tailcorrection: yes
    Ca4 -      Hm [LENNARD_JONES] p_0/k_B:  18.07391 [K], p_1: 2.99965 [A], shift/k_B:   0.00000000 [K], tailcorrection: yes
    Ca4 -      Cl [LENNARD_JONES] p_0/k_B:  75.96780 [K], p_1: 3.43530 [A], shift/k_B:   0.00000000 [K], tailcorrection: yes
    Ca4 -       F [LENNARD_JONES] p_0/k_B:  36.44782 [K], p_1: 3.25895 [A], shift/k_B:   0.00000000 [K], tailcorrection: yes
    Ca4 -   C_co2 [LENNARD_JONES_CONTINUOUS_FRACTIONAL] p_0/k_B:  34.18297 [K], p_1: 3.09985 [A], shift/k_B:   0.00000000 [K], tailcorrection: yes
    Ca4 -   O_co2 [LENNARD_JONES_CONTINUOUS_FRACTIONAL] p_0/k_B:  58.47113 [K], p_1: 3.22485 [A], shift/k_B:   0.00000000 [K], tailcorrection: yes
    Ca4 -    N_n2 [LENNARD_JONES_CONTINUOUS_FRACTIONAL] p_0/k_B:  39.47109 [K], p_1: 3.35485 [A], shift/k_B:   0.00000000 [K], tailcorrection: yes
    Ca4 -   N_com [ZERO_POTENTIAL_CONTINUOUS_FRACTIONAL]
    Ca5 -     Ca5 [LENNARD_JONES] p_0/k_B:  43.27687 [K], p_1: 3.39970 [A], shift/k_B:   0.00000000 [K], tailcorrection: yes
    Ca5 -      Ha [LENNARD_JONES] p_0/k_B:  18.07391 [K], p_1: 2.99965 [A], shift/k_B:   0.00000000 [K], tailcorrection: yes
    Ca5 -      H2 [LENNARD_JONES] p_0/k_B:  18.49083 [K], p_1: 2.93550 [A], shift/k_B:   0.00000000 [K], tailcorrection: yes
    Ca5 -      N3 [LENNARD_JONES] p_0/k_B:  60.84586 [K], p_1: 3.32485 [A], shift/k_B:   0.00000000 [K], tailcorrection: yes
    Ca5 -      C3 [LENNARD_JONES] p_0/k_B:  48.81072 [K], p_1: 3.39970 [A], shift/k_B:   0.00000000 [K], tailcorrection: yes
    Ca5 -      Cm [LENNARD_JONES] p_0/k_B:  48.81072 [K], p_1: 3.39970 [A], shift/k_B:   0.00000000 [K], tailcorrection: yes
    Ca5 -      Hm [LENNARD_JONES] p_0/k_B:  18.07391 [K], p_1: 2.99965 [A], shift/k_B:   0.00000000 [K], tailcorrection: yes
    Ca5 -      Cl [LENNARD_JONES] p_0/k_B:  75.96780 [K], p_1: 3.43530 [A], shift/k_B:   0.00000000 [K], tailcorrection: yes
    Ca5 -       F [LENNARD_JONES] p_0/k_B:  36.44782 [K], p_1: 3.25895 [A], shift/k_B:   0.00000000 [K], tailcorrection: yes
    Ca5 -   C_co2 [LENNARD_JONES_CONTINUOUS_FRACTIONAL] p_0/k_B:  34.18297 [K], p_1: 3.09985 [A], shift/k_B:   0.00000000 [K], tailcorrection: yes
    Ca5 -   O_co2 [LENNARD_JONES_CONTINUOUS_FRACTIONAL] p_0/k_B:  58.47113 [K], p_1: 3.22485 [A], shift/k_B:   0.00000000 [K], tailcorrection: yes
    Ca5 -    N_n2 [LENNARD_JONES_CONTINUOUS_FRACTIONAL] p_0/k_B:  39.47109 [K], p_1: 3.35485 [A], shift/k_B:   0.00000000 [K], tailcorrection: yes
    Ca5 -   N_com [ZERO_POTENTIAL_CONTINUOUS_FRACTIONAL]
     Ha -      Ha [LENNARD_JONES] p_0/k_B:   7.54829 [K], p_1: 2.59960 [A], shift/k_B:   0.00000000 [K], tailcorrection: yes
     Ha -      H2 [LENNARD_JONES] p_0/k_B:   7.72241 [K], p_1: 2.53545 [A], shift/k_B:   0.00000000 [K], tailcorrection: yes
     Ha -      N3 [LENNARD_JONES] p_0/k_B:  25.41133 [K], p_1: 2.92480 [A], shift/k_B:   0.00000000 [K], tailcorrection: yes
     Ha -      C3 [LENNARD_JONES] p_0/k_B:  20.38504 [K], p_1: 2.99965 [A], shift/k_B:   0.00000000 [K], tailcorrection: yes
     Ha -      Cm [LENNARD_JONES] p_0/k_B:  20.38504 [K], p_1: 2.99965 [A], shift/k_B:   0.00000000 [K], tailcorrection: yes
     Ha -      Hm [LENNARD_JONES] p_0/k_B:   7.54829 [K], p_1: 2.59960 [A], shift/k_B:   0.00000000 [K], tailcorrection: yes
     Ha -      Cl [LENNARD_JONES] p_0/k_B:  31.72678 [K], p_1: 3.03525 [A], shift/k_B:   0.00000000 [K], tailcorrection: yes
     Ha -       F [LENNARD_JONES] p_0/k_B:  15.22187 [K], p_1: 2.85890 [A], shift/k_B:   0.00000000 [K], tailcorrection: yes
     Ha -   C_co2 [LENNARD_JONES_CONTINUOUS_FRACTIONAL] p_0/k_B:  14.27599 [K], p_1: 2.69980 [A], shift/k_B:   0.00000000 [K], tailcorrection: yes
     Ha -   O_co2 [LENNARD_JONES_CONTINUOUS_FRACTIONAL] p_0/k_B:  24.41956 [K], p_1: 2.82480 [A], shift/k_B:   0.00000000 [K], tailcorrection: yes
     Ha -    N_n2 [LENNARD_JONES_CONTINUOUS_FRACTIONAL] p_0/k_B:  16.48449 [K], p_1: 2.95480 [A], shift/k_B:   0.00000000 [K], tailcorrection: yes
     Ha -   N_com [ZERO_POTENTIAL_CONTINUOUS_FRACTIONAL]
     H2 -      H2 [LENNARD_JONES] p_0/k_B:   7.90054 [K], p_1: 2.47130 [A], shift/k_B:   0.00000000 [K], tailcorrection: yes
     H2 -      N3 [LENNARD_JONES] p_0/k_B:  25.99750 [K], p_1: 2.86065 [A], shift/k_B:   0.00000000 [K], tailcorrection: yes
     H2 -      C3 [LENNARD_JONES] p_0/k_B:  20.85527 [K], p_1: 2.93550 [A], shift/k_B:   0.00000000 [K], tailcorrection: yes
     H2 -      Cm [LENNARD_JONES] p_0/k_B:  20.85527 [K], p_1: 2.93550 [A], shift/k_B:   0.00000000 [K], tailcorrection: yes
     H2 -      Hm [LENNARD_JONES] p_0/k_B:   7.72241 [K], p_1: 2.53545 [A], shift/k_B:   0.00000000 [K], tailcorrection: yes
     H2 -      Cl [LENNARD_JONES] p_0/k_B:  32.45863 [K], p_1: 2.97110 [A], shift/k_B:   0.00000000 [K], tailcorrection: yes
     H2 -       F [LENNARD_JONES] p_0/k_B:  15.57299 [K], p_1: 2.79475 [A], shift/k_B:   0.00000000 [K], tailcorrection: yes
     H2 -   C_co2 [LENNARD_JONES_CONTINUOUS_FRACTIONAL] p_0/k_B:  14.60530 [K], p_1: 2.63565 [A], shift/k_B:   0.00000000 [K], tailcorrection: yes
     H2 -   O_co2 [LENNARD_JONES_CONTINUOUS_FRACTIONAL] p_0/k_B:  24.98285 [K], p_1: 2.76065 [A], shift/k_B:   0.00000000 [K], tailcorrection: yes
     H2 -    N_n2 [LENNARD_JONES_CONTINUOUS_FRACTIONAL] p_0/k_B:  16.86474 [K], p_1: 2.89065 [A], shift/k_B:   0.00000000 [K], tailcorrection: yes
     H2 -   N_com [ZERO_POTENTIAL_CONTINUOUS_FRACTIONAL]
     N3 -      N3 [LENNARD_JONES] p_0/k_B:  85.54730 [K], p_1: 3.25000 [A], shift/k_B:   0.00000000 [K], tailcorrection: yes
     N3 -      C3 [LENNARD_JONES] p_0/k_B:  68.62629 [K], p_1: 3.32485 [A], shift/k_B:   0.00000000 [K], tailcorrection: yes
     N3 -      Cm [LENNARD_JONES] p_0/k_B:  68.62629 [K], p_1: 3.32485 [A], shift/k_B:   0.00000000 [K], tailcorrection: yes
     N3 -      Hm [LENNARD_JONES] p_0/k_B:  25.41133 [K], p_1: 2.92480 [A], shift/k_B:   0.00000000 [K], tailcorrection: yes
     N3 -      Cl [LENNARD_JONES] p_0/k_B: 106.80824 [K], p_1: 3.36045 [A], shift/k_B:   0.00000000 [K], tailcorrection: yes
     N3 -       F [LENNARD_JONES] p_0/k_B:  51.24444 [K], p_1: 3.18410 [A], shift/k_B:   0.00000000 [K], tailcorrection: yes
     N3 -   C_co2 [LENNARD_JONES_CONTINUOUS_FRACTIONAL] p_0/k_B:  48.06014 [K], p_1: 3.02500 [A], shift/k_B:   0.00000000 [K], tailcorrection: yes
     N3 -   O_co2 [LENNARD_JONES_CONTINUOUS_FRACTIONAL] p_0/k_B:  82.20849 [K], p_1: 3.15000 [A], shift/k_B:   0.00000000 [K], tailcorrection: yes
     N3 -    N_n2 [LENNARD_JONES_CONTINUOUS_FRACTIONAL] p_0/k_B:  55.49507 [K], p_1: 3.28000 [A], shift/k_B:   0.00000000 [K], tailcorrection: yes
     N3 -   N_com [ZERO_POTENTIAL_CONTINUOUS_FRACTIONAL]
     C3 -      C3 [LENNARD_JONES] p_0/k_B:  55.05220 [K], p_1: 3.39970 [A], shift/k_B:   0.00000000 [K], tailcorrection: yes
     C3 -      Cm [LENNARD_JONES] p_0/k_B:  55.05220 [K], p_1: 3.39970 [A], shift/k_B:   0.00000000 [K], tailcorrection: yes
     C3 -      Hm [LENNARD_JONES] p_0/k_B:  20.38504 [K], p_1: 2.99965 [A], shift/k_B:   0.00000000 [K], tailcorrection: yes
     C3 -      Cl [LENNARD_JONES] p_0/k_B:  85.68188 [K], p_1: 3.43530 [A], shift/k_B:   0.00000000 [K], tailcorrection: yes
     C3 -       F [LENNARD_JONES] p_0/k_B:  41.10844 [K], p_1: 3.25895 [A], shift/k_B:   0.00000000 [K], tailcorrection: yes
     C3 -   C_co2 [LENNARD_JONES_CONTINUOUS_FRACTIONAL] p_0/k_B:  38.55398 [K], p_1: 3.09985 [A], shift/k_B:   0.00000000 [K], tailcorrection: yes
     C3 -   O_co2 [LENNARD_JONES_CONTINUOUS_FRACTIONAL] p_0/k_B:  65.94789 [K], p_1: 3.22485 [A], shift/k_B:   0.00000000 [K], tailcorrection: yes
     C3 -    N_n2 [LENNARD_JONES_CONTINUOUS_FRACTIONAL] p_0/k_B:  44.51830 [K], p_1: 3.35485 [A], shift/k_B:   0.00000000 [K], tailcorrection: yes
     C3 -   N_com [ZERO_POTENTIAL_CONTINUOUS_FRACTIONAL]
     Cm -      Cm [LENNARD_JONES] p_0/k_B:  55.05220 [K], p_1: 3.39970 [A], shift/k_B:   0.00000000 [K], tailcorrection: yes
     Cm -      Hm [LENNARD_JONES] p_0/k_B:  20.38504 [K], p_1: 2.99965 [A], shift/k_B:   0.00000000 [K], tailcorrection: yes
     Cm -      Cl [LENNARD_JONES] p_0/k_B:  85.68188 [K], p_1: 3.43530 [A], shift/k_B:   0.00000000 [K], tailcorrection: yes
     Cm -       F [LENNARD_JONES] p_0/k_B:  41.10844 [K], p_1: 3.25895 [A], shift/k_B:   0.00000000 [K], tailcorrection: yes
     Cm -   C_co2 [LENNARD_JONES_CONTINUOUS_FRACTIONAL] p_0/k_B:  38.55398 [K], p_1: 3.09985 [A], shift/k_B:   0.00000000 [K], tailcorrection: yes
     Cm -   O_co2 [LENNARD_JONES_CONTINUOUS_FRACTIONAL] p_0/k_B:  65.94789 [K], p_1: 3.22485 [A], shift/k_B:   0.00000000 [K], tailcorrection: yes
     Cm -    N_n2 [LENNARD_JONES_CONTINUOUS_FRACTIONAL] p_0/k_B:  44.51830 [K], p_1: 3.35485 [A], shift/k_B:   0.00000000 [K], tailcorrection: yes
     Cm -   N_com [ZERO_POTENTIAL_CONTINUOUS_FRACTIONAL]
     Hm -      Hm [LENNARD_JONES] p_0/k_B:   7.54829 [K], p_1: 2.59960 [A], shift/k_B:   0.00000000 [K], tailcorrection: yes
     Hm -      Cl [LENNARD_JONES] p_0/k_B:  31.72678 [K], p_1: 3.03525 [A], shift/k_B:   0.00000000 [K], tailcorrection: yes
     Hm -       F [LENNARD_JONES] p_0/k_B:  15.22187 [K], p_1: 2.85890 [A], shift/k_B:   0.00000000 [K], tailcorrection: yes
     Hm -   C_co2 [LENNARD_JONES_CONTINUOUS_FRACTIONAL] p_0/k_B:  14.27599 [K], p_1: 2.69980 [A], shift/k_B:   0.00000000 [K], tailcorrection: yes
     Hm -   O_co2 [LENNARD_JONES_CONTINUOUS_FRACTIONAL] p_0/k_B:  24.41956 [K], p_1: 2.82480 [A], shift/k_B:   0.00000000 [K], tailcorrection: yes
     Hm -    N_n2 [LENNARD_JONES_CONTINUOUS_FRACTIONAL] p_0/k_B:  16.48449 [K], p_1: 2.95480 [A], shift/k_B:   0.00000000 [K], tailcorrection: yes
     Hm -   N_com [ZERO_POTENTIAL_CONTINUOUS_FRACTIONAL]
     Cl -      Cl [LENNARD_JONES] p_0/k_B: 133.35314 [K], p_1: 3.47090 [A], shift/k_B:   0.00000000 [K], tailcorrection: yes
     Cl -       F [LENNARD_JONES] p_0/k_B:  63.98015 [K], p_1: 3.29455 [A], shift/k_B:   0.00000000 [K], tailcorrection: yes
     Cl -   C_co2 [LENNARD_JONES_CONTINUOUS_FRACTIONAL] p_0/k_B:  60.00446 [K], p_1: 3.13545 [A], shift/k_B:   0.00000000 [K], tailcorrection: yes
     Cl -   O_co2 [LENNARD_JONES_CONTINUOUS_FRACTIONAL] p_0/k_B: 102.63965 [K], p_1: 3.26045 [A], shift/k_B:   0.00000000 [K], tailcorrection: yes
     Cl -    N_n2 [LENNARD_JONES_CONTINUOUS_FRACTIONAL] p_0/k_B:  69.28718 [K], p_1: 3.39045 [A], shift/k_B:   0.00000000 [K], tailcorrection: yes
     Cl -   N_com [ZERO_POTENTIAL_CONTINUOUS_FRACTIONAL]
      F -       F [LENNARD_JONES] p_0/k_B:  30.69638 [K], p_1: 3.11820 [A], shift/k_B:   0.00000000 [K], tailcorrection: yes
      F -   C_co2 [LENNARD_JONES_CONTINUOUS_FRACTIONAL] p_0/k_B:  28.78893 [K], p_1: 2.95910 [A], shift/k_B:   0.00000000 [K], tailcorrection: yes
      F -   O_co2 [LENNARD_JONES_CONTINUOUS_FRACTIONAL] p_0/k_B:  49.24443 [K], p_1: 3.08410 [A], shift/k_B:   0.00000000 [K], tailcorrection: yes
      F -    N_n2 [LENNARD_JONES_CONTINUOUS_FRACTIONAL] p_0/k_B:  33.24259 [K], p_1: 3.21410 [A], shift/k_B:   0.00000000 [K], tailcorrection: yes
      F -   N_com [ZERO_POTENTIAL_CONTINUOUS_FRACTIONAL]
  C_co2 -   C_co2 [LENNARD_JONES_CONTINUOUS_FRACTIONAL] p_0/k_B:  27.00000 [K], p_1: 2.80000 [A], shift/k_B:   0.00000000 [K], tailcorrection: yes
  C_co2 -   O_co2 [LENNARD_JONES_CONTINUOUS_FRACTIONAL] p_0/k_B:  46.18441 [K], p_1: 2.92500 [A], shift/k_B:   0.00000000 [K], tailcorrection: yes
  C_co2 -    N_n2 [LENNARD_JONES_CONTINUOUS_FRACTIONAL] p_0/k_B:  31.17691 [K], p_1: 3.05500 [A], shift/k_B:   0.00000000 [K], tailcorrection: yes
  C_co2 -   N_com [ZERO_POTENTIAL_CONTINUOUS_FRACTIONAL]
  O_co2 -   O_co2 [LENNARD_JONES_CONTINUOUS_FRACTIONAL] p_0/k_B:  79.00000 [K], p_1: 3.05000 [A], shift/k_B:   0.00000000 [K], tailcorrection: yes
  O_co2 -    N_n2 [LENNARD_JONES_CONTINUOUS_FRACTIONAL] p_0/k_B:  53.32917 [K], p_1: 3.18000 [A], shift/k_B:   0.00000000 [K], tailcorrection: yes
  O_co2 -   N_com [ZERO_POTENTIAL_CONTINUOUS_FRACTIONAL]
   N_n2 -    N_n2 [LENNARD_JONES_CONTINUOUS_FRACTIONAL] p_0/k_B:  36.00000 [K], p_1: 3.31000 [A], shift/k_B:   0.00000000 [K], tailcorrection: yes
   N_n2 -   N_com [ZERO_POTENTIAL_CONTINUOUS_FRACTIONAL]
  N_com -   N_com [ZERO_POTENTIAL_CONTINUOUS_FRACTIONAL]


MoleculeDefinitions:
===========================================================================
Component 0 [CO2] (Adsorbate molecule)

	MoleculeDefinitions: ExampleDefinitions
	Component contains (at least some) atoms which are charged
	Component contains no atoms with point dipoles (polarization)
	Component has a net charge of 0.000000

	Ideal chain Rosenbluth weight: 1
	Ideal chain total energy: 0.000000

	Critical temparure [K]: 304.128200
	Critical pressure [Pa]: 7377300.000000
	Acentric factor [-]: 0.223940

	RXMC partition factor ln(q/V) [ln(A^(-3))]:       0.0000000000

	Fluid is a vapour

	MolFraction:           0.5000000000 [-]
	Compressibility:       0.9975617621 [-]

	Density of the bulk fluid phase:       1.7682573756 [kg/m^3]

	Binary mixture EOS parameters:  (0): 0.000000 (1): 0.000000

	Amount of excess molecules:       0.1387456209 [-]

	Conversion factor molecules/unit cell -> mol/kg:       0.1094297105 [-]
	Conversion factor molecules/unit cell -> mg/g:       4.8147759454 [-]
	Conversion factor molecules/unit cell -> cm^3 STP/gr:       2.4527548767 [-]
	Conversion factor molecules/unit cell -> cm^3 STP/cm^3:       1.9931621658 [-]
	Conversion factor mol/kg -> cm^3 STP/gr:      22.4139757476 [-]
	Conversion factor mol/kg -> cm^3 STP/cm^3:      18.2140860751 [-]

	Partial pressure:     50000.00000000000000 [Pa]
	                        375.00000000000000 [Torr]
	                          0.50000000000000 [bar]
	                          0.49346163335801 [atm]

	Fugacity coefficient:       1.0000000000 [-]

	Partial fugacity:     50000.00000000000000 [Pa]
	                        375.00000000000000 [Torr]
	                          0.50000000000000 [bar]
	                          0.49346163335801 [atm]

	Molecule contains 3 number of atoms
		atom:    0  is of type:   20 [     O_co2] (group: 0)
		atom:    1  is of type:   19 [     C_co2] (group: 0)
		atom:    2  is of type:   20 [     O_co2] (group: 0)

	Molecule contains 0 chirality centers

	Molecule contains 1 number of groups

		group: 0 containing: 3 elements
		-------------------------------------------------
		the group is rigid and linear
		Mass: 43.998800 [a.u.]
		Mass: 3.912593 [kg/m^3]

		Rotational Degrees of freedom: 2
		Diagonalized inertia vector:      42.2448477588
		                                  42.2448477588
		                                   0.0000000000
		number of atoms: 3
			element: 0 atom: 0 [     O_co2] Charge: -0.350000 Anisotropy: 0.000000 Position:  0.000000 -0.000000  1.149000 Connectivity: 1 (1 )
			element: 1 atom: 1 [     C_co2] Charge:  0.700000 Anisotropy: 0.000000 Position:  0.000000 -0.000000  0.000000 Connectivity: 2 (0 2 )
			element: 2 atom: 2 [     O_co2] Charge: -0.350000 Anisotropy: 0.000000 Position:  0.000000 -0.000000 -1.149000 Connectivity: 1 (1 )
		number of permanent dipoles: 0
		number of polarizabilities: 0

		Dipole:           0.0000000000 [D]
		Quadrupole:       2.2194194468       2.2194194468      -4.4388388936 [D Angstrom]
		Quadrupole tensor [D Angstrom]
				       2.2194194468       0.0000000000       0.0000000000
				       0.0000000000       2.2194194468       0.0000000000
				       0.0000000000       0.0000000000      -4.4388388936

	Starting bead for growth               : 0

	Degrees of freedom                     : 0
	Translational degrees of freedom       : 0
	Rotational degrees of freedom          : 0
	Vibrational degrees of freedom         : 0
	Constraint degrees of freedom          : 0

	Number of atoms                        : 3

	Number of constraint bonds             : 0
	Number of constraint bends             : 0
	Number of constraint inversion bends   : 0
	Number of constraint torsions          : 0
	Number of constraint improper torsions : 0
	Number of constraint improper torsions : 0

	Number of bonds                        : 2
	Number of Urey-Bradleys                : 0
	Number of bends                        : 0
	Number of inversion bends              : 0
	Number of torsions                     : 0
	Number of improper torsions            : 0
	Number of improper torsions            : 0

	Number of bond/bond cross terms        : 0
	Number of bond/bend cross terms        : 0
	Number of bend/bend cross terms        : 0
	Number of stretch/torsion cross terms  : 0
	Number of bend/torsion cross terms     : 0

	Number of charges                      : 3
	Number of bond-dipoles                 : 0

	Number of intra Van der Waals                             : 0
	Number of intra charge-charge Coulomb                     : 0
	Number of intra charge-bonddipole Coulomb                 : 0
	Number of intra bonddipole-bonddipole Coulomb             : 0

	Number of excluded intra charge-charge Coulomb                     : 3
	Number of excluded intra charge-bonddipole Coulomb                 : 0
	Number of excluded intra bonddipole-bonddipole Coulomb             : 0

	Number of cbmc-config moves                               : 0

	Particle Moves:             
		ProbabilityTranslationMove:                  20.000000
			TranslationDirection:      XYZ
		Percentage of random translation moves:            0.000000
		Percentage of rotation moves:                      20.000000
		Percentage of random rotation moves:               0.000000
		Percentage of partial reinsertion moves:           0.000000
		Percentage of reinsertion moves:                   20.000000
		Percentage of reinsertion-in-place moves:          0.000000
		Percentage of reinsertion-in-plane moves:          0.000000
		Percentage of identity-change moves:               20.000000
			move 0    component 0 => 0
			move 1    component 0 => 1
		Percentage of swap (insert/delete) moves:          0.000000
		Percentage of CF swap lambda moves:                20.000000
		Percentage of CB/CFMC swap lambda moves:           0.000000
		Percentage of Widom insertion moves:               0.000000
		Percentage of CF-Widom insertion moves:            0.000000
		Percentage of Gibbs Widom insertion moves:         0.000000
		Percentage of surface-area moves:                  0.000000
		Percentage of Gibbs particle-transfer moves:       0.000000
		Percentage of Gibbs identity-change moves:         0.000000
		Percentage of CF Gibbs lambda-transfer moves:      0.000000
		Percentage of CB/CFMC Gibbs lambda-transfer moves: 0.000000
		Percentage of exchange frac./int. particle moves:  0.000000
		Percentage of fractional mol. to other box moves:  0.000000
		Percentage of lambda-change moves:                 0.000000
		Percentage of fractional to integer moves:         0.000000

	System Moves:
		Percentage of parallel-tempering moves:            0.000000
		Percentage of hyper-parallel-tempering moves:      0.000000
		Percentage of parallel-mol-fraction moves:         0.000000
			   Component A: 0 B: 1
		Percentage of chiral inversion moves:              0.000000
		Percentage of Hybrid-NVE moves:                    0.000000
		Percentage of Hybrid-NPH moves:                    0.000000
		Percentage of Hybrid-NPHPR moves:                  0.000000
		Percentage of volume-change moves:                 0.000000
		Percentage of box-shape-change moves:              0.000000
		Percentage of Gibbs volume-change moves:           0.000000
		Percentage of framework-change moves:              0.000000
		Percentage of framework-shift moves:               0.000000
		Percentage of reactive MC moves:                   0.000000

	Moves are restricted: No
	No biased sampling used for this component

	Number of Bonds: 2
	--------------------------------------------
	Bond interaction 0: A=0 B=1 Type:RIGID_BOND
		r_0=1.1490000000       [A]
	Bond interaction 1: A=1 B=2 Type:RIGID_BOND
		r_0=1.1490000000       [A]


	number of identity changes: 2
	--------------------------------------------
	0 (CO2) to 0 (CO2)
	0 (CO2) to 1 (N2)

	number of identity-config changes: 1
	--------------------------------------------
	nr fixed 1: 0 

	Number of pockets blocked in a unitcell: 0
		Pockets are NOT blocked for this component

Component 1 [N2] (Adsorbate molecule)

	MoleculeDefinitions: ExampleDefinitions
	Component contains (at least some) atoms which are charged
	Component contains no atoms with point dipoles (polarization)
	Component has a net charge of 0.000000

	Ideal chain Rosenbluth weight: 1
	Ideal chain total energy: 0.000000

	Critical temparure [K]: 126.192000
	Critical pressure [Pa]: 3395800.000000
	Acentric factor [-]: 0.037200

	RXMC partition factor ln(q/V) [ln(A^(-3))]:       0.0000000000

	Fluid is a vapour

	MolFraction:           0.5000000000 [-]
	Compressibility:       0.9975617621 [-]

	Density of the bulk fluid phase:       1.1258271277 [kg/m^3]

	Binary mixture EOS parameters:  (0): 0.000000 (1): 0.000000

	Amount of excess molecules:       0.1387456209 [-]

	Conversion factor molecules/unit cell -> mol/kg:       0.1094297105 [-]
	Conversion factor molecules/unit cell -> mg/g:       3.0655070059 [-]
	Conversion factor molecules/unit cell -> cm^3 STP/gr:       2.4527548767 [-]
	Conversion factor molecules/unit cell -> cm^3 STP/cm^3:       1.9931621658 [-]
	Conversion factor mol/kg -> cm^3 STP/gr:      22.4139757476 [-]
	Conversion factor mol/kg -> cm^3 STP/cm^3:      18.2140860751 [-]

	Partial pressure:     50000.00000000000000 [Pa]
	                        375.00000000000000 [Torr]
	                          0.50000000000000 [bar]
	                          0.49346163335801 [atm]

	Fugacity coefficient:       1.0000000000 [-]

	Partial fugacity:     50000.00000000000000 [Pa]
	                        375.00000000000000 [Torr]
	                          0.50000000000000 [bar]
	                          0.49346163335801 [atm]

	Molecule contains 3 number of atoms
		atom:    0  is of type:   21 [      N_n2] (group: 0)
		atom:    1  is of type:   22 [     N_com] (group: 0)
		atom:    2  is of type:   21 [      N_n2] (group: 0)

	Molecule contains 0 chirality centers

	Molecule contains 1 number of groups

		group: 0 containing: 3 elements
		-------------------------------------------------
		the group is rigid and linear
		Mass: 28.013480 [a.u.]
		Mass: 2.491099 [kg/m^3]

		Rotational Degrees of freedom: 2
		Diagonalized inertia vector:       8.4740777000
		                                   8.4740777000
		                                   0.0000000000
		number of atoms: 3
			element: 0 atom: 0 [      N_n2] Charge: -0.482000 Anisotropy: 0.000000 Position:  0.000000 -0.000000  0.550000 Connectivity: 1 (1 )
			element: 1 atom: 1 [     N_com] Charge:  0.964000 Anisotropy: 0.000000 Position:  0.000000 -0.000000  0.000000 Connectivity: 2 (0 2 )
			element: 2 atom: 2 [      N_n2] Charge: -0.482000 Anisotropy: 0.000000 Position:  0.000000 -0.000000 -0.550000 Connectivity: 1 (1 )
		number of permanent dipoles: 0
		number of polarizabilities: 0

		Dipole:           0.0000000000 [D]
		Quadrupole:       0.7003315673       0.7003315673      -1.4006631347 [D Angstrom]
		Quadrupole tensor [D Angstrom]
				       0.7003315673       0.0000000000       0.0000000000
				       0.0000000000       0.7003315673       0.0000000000
				       0.0000000000       0.0000000000      -1.4006631347

	Starting bead for growth               : 0

	Degrees of freedom                     : 0
	Translational degrees of freedom       : 0
	Rotational degrees of freedom          : 0
	Vibrational degrees of freedom         : 0
	Constraint degrees of freedom          : 0

	Number of atoms                        : 3

	Number of constraint bonds             : 0
	Number of constraint bends             : 0
	Number of constraint inversion bends   : 0
	Number of constraint torsions          : 0
	Number of constraint improper torsions : 0
	Number of constraint improper torsions : 0

	Number of bonds                        : 2
	Number of Urey-Bradleys                : 0
	Number of bends                        : 0
	Number of inversion bends              : 0
	Number of torsions                     : 0
	Number of improper torsions            : 0
	Number of improper torsions            : 0

	Number of bond/bond cross terms        : 0
	Number of bond/bend cross terms        : 0
	Number of bend/bend cross terms        : 0
	Number of stretch/torsion cross terms  : 0
	Number of bend/torsion cross terms     : 0

	Number of charges                      : 3
	Number of bond-dipoles                 : 0

	Number of intra Van der Waals                             : 0
	Number of intra charge-charge Coulomb                     : 0
	Number of intra charge-bonddipole Coulomb                 : 0
	Number of intra bonddipole-bonddipole Coulomb             : 0

	Number of excluded intra charge-charge Coulomb                     : 3
	Number of excluded intra charge-bonddipole Coulomb                 : 0
	Number of excluded intra bonddipole-bonddipole Coulomb             : 0

	Number of cbmc-config moves                               : 0

	Particle Moves:             
		ProbabilityTranslationMove:                  20.000000
			TranslationDirection:      XYZ
		Percentage of random translation moves:            0.000000
		Percentage of rotation moves:                      20.000000
		Percentage of random rotation moves:               0.000000
		Percentage of partial reinsertion moves:           0.000000
		Percentage of reinsertion moves:                   20.000000
		Percentage of reinsertion-in-place moves:          0.000000
		Percentage of reinsertion-in-plane moves:          0.000000
		Percentage of identity-change moves:               20.000000
			move 0    component 1 => 0
			move 1    component 1 => 1
		Percentage of swap (insert/delete) moves:          0.000000
		Percentage of CF swap lambda moves:                20.000000
		Percentage of CB/CFMC swap lambda moves:           0.000000
		Percentage of Widom insertion moves:               0.000000
		Percentage of CF-Widom insertion moves:            0.000000
		Percentage of Gibbs Widom insertion moves:         0.000000
		Percentage of surface-area moves:                  0.000000
		Percentage of Gibbs particle-transfer moves:       0.000000
		Percentage of Gibbs identity-change moves:         0.000000
		Percentage of CF Gibbs lambda-transfer moves:      0.000000
		Percentage of CB/CFMC Gibbs lambda-transfer moves: 0.000000
		Percentage of exchange frac./int. particle moves:  0.000000
		Percentage of fractional mol. to other box moves:  0.000000
		Percentage of lambda-change moves:                 0.000000
		Percentage of fractional to integer moves:         0.000000

	System Moves:
		Percentage of parallel-tempering moves:            0.000000
		Percentage of hyper-parallel-tempering moves:      0.000000
		Percentage of parallel-mol-fraction moves:         0.000000
			   Component A: 0 B: 1
		Percentage of chiral inversion moves:              0.000000
		Percentage of Hybrid-NVE moves:                    0.000000
		Percentage of Hybrid-NPH moves:                    0.000000
		Percentage of Hybrid-NPHPR moves:                  0.000000
		Percentage of volume-change moves:                 0.000000
		Percentage of box-shape-change moves:              0.000000
		Percentage of Gibbs volume-change moves:           0.000000
		Percentage of framework-change moves:              0.000000
		Percentage of framework-shift moves:               0.000000
		Percentage of reactive MC moves:                   0.000000

	Moves are restricted: No
	No biased sampling used for this component

	Number of Bonds: 2
	--------------------------------------------
	Bond interaction 0: A=0 B=1 Type:RIGID_BOND
		r_0=0.5500000000       [A]
	Bond interaction 1: A=1 B=2 Type:RIGID_BOND
		r_0=0.5500000000       [A]


	number of identity changes: 2
	--------------------------------------------
	1 (N2) to 0 (CO2)
	1 (N2) to 1 (N2)

	number of identity-config changes: 1
	--------------------------------------------
	nr fixed 1: 0 

	Number of pockets blocked in a unitcell: 0
		Pockets are NOT blocked for this component



Framework Status
===========================================================================
Lowenstein's rule obeyed by framework
	Framework is modelled as: rigid

	Number of charges:                               864
	Number of bonddipoles:                           0


System Properties
===========================================================================
Unit cell size: 21.987124 21.987124 38.626774
Cell angles (radians)  alpha: 1.570796 beta: 1.570796 gamma: 1.570796
Cell angles (degrees)  alpha: 90.000000 beta: 90.000000 gamma: 90.000000
Number of unitcells [a]: 1
Number of unitcells [b]: 1
Number of unitcells [c]: 1

RECTANGULAR Boundary conditions: alpha=beta=gamma=90 degrees

Cartesian axis A is collinear with crystallographic axis a
Cartesian axis B is collinear with (axb)xA
Cartesian axis C is collinear with (axb)

lengths of cell vectors:
 21.98712  21.98712  38.62677
cosines of cell angles:
  0.00000   0.00000   0.00000
perpendicular cell widths:
 21.98712  21.98712  38.62677
volume of the cell: 18673.480455726189 (A^3)

Orthogonalization matrix Box
Transforms fractional coordinates abc into orthonormal Cartesian coordinates xyz
Deorthogonalization matrix InverseBox
Transforms orthonormal Cartesian coordinates xyz into fractional coordinates xyz

Box[0]:
	   21.987123601700     0.000000000000     0.000000000000
	    0.000000000000    21.987123601700     0.000000000000
	    0.000000000000     0.000000000000    38.626773750400

Inverse box[0]:
	    0.045481165164    -0.000000000000    -0.000000000000
	    0.000000000000     0.045481165164    -0.000000000000
	    0.000000000000     0.000000000000     0.025888778764


Unitcell box[0]:
	   21.987123601700     0.000000000000     0.000000000000
	    0.000000000000    21.987123601700     0.000000000000
	    0.000000000000     0.000000000000    38.626773750400

Unitcell inverse box[0]:
	    0.045481165164    -0.000000000000    -0.000000000000
	    0.000000000000     0.045481165164    -0.000000000000
	    0.000000000000     0.000000000000     0.025888778764

lengths of cell vectors (inverse box):
  0.04548   0.04548   0.02589
cosines of cell angles (inverse box):
 -0.00000  -0.00000  -0.00000
perpendicular cell widths (inverse):
  0.04548   0.04548   0.02589
volume of the cell: 18673.480455726189 (A^3)

No replicas are used
Framework is simulated as 'rigid'
Number of framework atoms: 864
Number of framework atoms in the unit cell: 864
Framework Mass:  9138.286079999933 [g/mol]
Framework Density:   812.621833816930 [kg/m^3]    1.2305847054379 [cm^3/g]
Helium void fraction:    0.61400000
Available pore volume: 11465.51699982 [A^3]    0.75557901 [cm^3/g]
Conversion factor from molecule/unit cell -> kmol/m^3: 0.088925, kmol/m^3 accesible pore volume: 0.144829

Number Of Frameworks (per system): 1
----------------------------------------------------------------------
Framework name: DMOF
Space group: 1
	Identifier: 1
	short international Hermann-Mauguin symbol: P 1
	long international Hermann-Mauguin symbol: P 1
	Hall symbol: P 1
	Number of lattice translations: 1 [ (0,0,0) ]
	acentric/centric: acentric
	chiral: no
	enantiomorphic: no
	number of operators: 1
		'x,y,z'
Framework is simulated as 'rigid'
Shift: 0.000000 0.000000 0.000000
Number of framework atoms: 864
Number of asymmetric atoms: 864
Number of free framework atoms: 0
Number of fixed framework atoms: 864
Number of framework atoms in the unit cell: 864
Framework Mass:  9138.286079999933 [g/mol]
Framework Density:   812.621833816930 [kg/m^3]
Framework has net charge: 0.000000
         largest charge : 1.183200
         smallest charge: -0.737200

Using FULL Host-guest interaction calculation (for testing purposes)

Current Atom Status
===========================================================================
Number of framework atoms        : 864
Number of cations molecules      : 0
Number of adsorbate molecules    : 2
Component    0 :    1 molecules
Component    1 :    1 molecules
Pseudo Atoms    0 [    UNIT]:    0 atoms
Pseudo Atoms    1 [      He]:    0 atoms
Pseudo Atoms    2 [      Zn]:   32 atoms
Pseudo Atoms    3 [      O1]:   64 atoms
Pseudo Atoms    4 [      O2]:   64 atoms
Pseudo Atoms    5 [      C2]:   64 atoms
Pseudo Atoms    6 [     Ca1]:   64 atoms
Pseudo Atoms    7 [     Ca2]:  128 atoms
Pseudo Atoms    8 [     Ca3]:    0 atoms
Pseudo Atoms    9 [     Ca4]:    0 atoms
Pseudo Atoms   10 [     Ca5]:    0 atoms
Pseudo Atoms   11 [      Ha]:  128 atoms
Pseudo Atoms   12 [      H2]:  192 atoms
Pseudo Atoms   13 [      N3]:   32 atoms
Pseudo Atoms   14 [      C3]:   96 atoms
Pseudo Atoms   15 [      Cm]:    0 atoms
Pseudo Atoms   16 [      Hm]:    0 atoms
Pseudo Atoms   17 [      Cl]:    0 atoms
Pseudo Atoms   18 [       F]:    0 atoms
Pseudo Atoms   19 [   C_co2]:    1 atoms
Pseudo Atoms   20 [   O_co2]:    2 atoms
Pseudo Atoms   21 [    N_n2]:    2 atoms
Pseudo Atoms   22 [   N_com]:    1 atoms


Current (initial full energy) Energy Status
===========================================================================

Internal energy:
Host stretch energy:                                            0.00000000
Host UreyBradley energy:                                        0.00000000
Host bend energy:                                               0.00000000
Host inversion-bend energy:                                     0.00000000
Host torsion energy:                                            0.00000000
Host improper torsion energy:                                   0.00000000
Host out-of-plane energy:                                       0.00000000
Host stretch/stretch energy:                                    0.00000000
Host bend/bend energy:                                          0.00000000
Host stretch/bend energy:                                       0.00000000
Host stretch/torsion energy:                                    0.00000000
Host bend/torsion energy:                                       0.00000000

Adsorbate stretch energy:                                       0.00000000
Adsorbate UreyBradley energy:                                   0.00000000
Adsorbate bend energy:                                          0.00000000
Adsorbate inversion-bend energy:                                0.00000000
Adsorbate torsion energy:                                       0.00000000
Adsorbate improper torsion energy:                              0.00000000
Adsorbate out-of-plane energy:                                  0.00000000
Adsorbate stretch/stretch energy:                               0.00000000
Adsorbate bend/bend energy:                                     0.00000000
Adsorbate stretch/bend energy:                                  0.00000000
Adsorbate stretch/torsion energy:                               0.00000000
Adsorbate bend/torsion energy:                                  0.00000000
Adsorbate intra VDW energy:                                     0.00000000
Adsorbate intra charge-charge Coulomb energy:                   0.00000000
Adsorbate intra charge-bonddipole Coulomb energy:               0.00000000
Adsorbate intra bonddipole-bonddipole Coulomb energy:           0.00000000

Cation stretch energy:                                          0.00000000
Cation UreyBradley energy:                                      0.00000000
Cation bend energy:                                             0.00000000
Cation inversion-bend energy:                                   0.00000000
Cation torsion energy:                                          0.00000000
Cation improper torsion energy:                                 0.00000000
Cation out-of-plane energy:                                     0.00000000
Cation stretch/stretch energy:                                  0.00000000
Cation bend/bend energy:                                        0.00000000
Cation stretch/bend energy:                                     0.00000000
Cation stretch/torsion energy:                                  0.00000000
Cation bend/torsion energy:                                     0.00000000
Cation intra VDW energy:                                        0.00000000
Cation intra charge-charge Coulomb energy:                      0.00000000
Cation intra charge-bonddipole Coulomb energy:                  0.00000000
Cation intra bonddipole-bonddipole Coulomb energy:              0.00000000

Host/Host energy:                                             0.00000000
	Host/Host VDW energy:                                         0.00000000
	Host/Host Coulomb energy:                                     0.00000000
	Host/Host charge-charge Real energy:                          0.00000000
	Host/Host charge-charge Fourier energy:                       0.00000000
	Host/Host charge-bonddipole Real energy:                      0.00000000
	Host/Host charge-bonddipole Fourier energy:                   0.00000000
	Host/Host bondipole-bonddipole Real energy:                   0.00000000
	Host/Host bondipole-bonddipole Fourier energy:                0.00000000

Host/Adsorbate energy:                                     -903.53223206
	Host/Adsorbate VDW energy:                                 -907.47753044
	Host/Adsorbate Coulomb energy:                                3.94529838
	Host/Adsorbate charge-charge Real energy:                     2.71886230
	Host/Adsorbate charge-charge Fourier energy:                  1.22643608
	Host/Adsorbate charge-bonddipole Real energy:                 0.00000000
	Host/Adsorbate charge-bonddipole Fourier energy:              0.00000000
	Host/Adsorbate bondipole-bonddipole Real energy:              0.00000000
	Host/Adsorbate bondipole-bonddipole Fourier energy:           0.00000000

Host/Cation energy:                                           0.00000000
	Host/Cation VDW energy:                                       0.00000000
	Host/Cation Coulomb energy:                                   0.00000000
	Host/Cation charge-charge Real energy:                        0.00000000
	Host/Cation charge-charge Fourier energy:                     0.00000000
	Host/Cation charge-bonddipole Real energy:                    0.00000000
	Host/Cation charge-bonddipole Fourier energy:                 0.00000000
	Host/Cation bondipole-bonddipole Real energy:                 0.00000000
	Host/Cation bondipole-bonddipole Fourier energy:              0.00000000

Adsorbate/Adsorbate energy:                                        0.00000071
	Adsorbate/Adsorbate VDW energy:                                    0.00000000
	Adsorbate/Adsorbate Coulomb energy:                                0.00000071
	Adsorbate/Adsorbate charge-charge Real energy:                     0.00000000
	Adsorbate/Adsorbate charge-charge Fourier energy:                  0.00000071
	Adsorbate/Adsorbate charge-bonddipole Real energy:                 0.00000000
	Adsorbate/Adsorbate charge-bonddipole Fourier energy:              0.00000000
	Adsorbate/Adsorbate bondipole-bonddipole Real energy:              0.00000000
	Adsorbate/Adsorbate bondipole-bonddipole Fourier energy:           0.00000000

Adsorbate/Cation energy:                                           0.00000000
	Adsorbate/Cation VDW energy:                                       0.00000000
	Adsorbate/Cation Coulomb energy:                                   0.00000000
	Adsorbate/Cation charge-charge Real energy:                        0.00000000
	Adsorbate/Cation charge-charge Fourier energy:                     0.00000000
	Adsorbate/Cation charge-bonddipole Real energy:                    0.00000000
	Adsorbate/Cation charge-bonddipole Fourier energy:                 0.00000000
	Adsorbate/Cation bondipole-bonddipole Real energy:                 0.00000000
	Adsorbate/Cation bondipole-bonddipole Fourier energy:              0.00000000

Cation/Cation energy:                                           0.00000000
	Cation/Cation VDW energy:                                       0.00000000
	Cation/Cation Coulomb energy:                                   0.00000000
	Cation/Cation charge-charge Real energy:                        0.00000000
	Cation/Cation charge-charge Fourier energy:                     0.00000000
	Cation/Cation charge-bonddipole Real energy:                    0.00000000
	Cation/Cation charge-bonddipole Fourier energy:                 0.00000000
	Cation/Cation bondipole-bonddipole Real energy:                 0.00000000
	Cation/Cation bondipole-bonddipole Fourier energy:              0.00000000

Polarization energy:
	Host polarization energy:                                     0.00000000
	Adsorbate polarization energy:                                0.00000000
	Cation polarization energy:                                   0.00000000
	Host back-polarization energy:                                     0.00000000
	Adsorbate back-polarization energy:                                0.00000000
	Cation back-polarization energy:                                   0.00000000

Tail-correction energy:                                  -10790.30623749

Distance constraints energy:                                  0.00000000
Angle constraints energy:                                     0.00000000
Dihedral constraints energy:                                  0.00000000
Inversion-bend constraints energy:                            0.00000000
Out-of-plane distance constraints energy:                     0.00000000
Exclusion constraints energy:                                 0.00000000

===================================================================
Total energy: -11693.838468846947
	Total Van der Waals: -907.477530
	Total Coulomb: 3.945299

	Total Polarization: 0.000000







+++++++++++++++++++++++++++++++++++++++++++++++++++++++++++++++++++++++++
Starting simulation
+++++++++++++++++++++++++++++++++++++++++++++++++++++++++++++++++++++++++

[Equilibration] Current cycle: 0 out of 50000
========================================================================================================

Net charge: -3.06866e-13 (F: -3.06866e-13, A: 0, C: 0)
Current Box:  21.98712   0.00000   0.00000 [A]
               0.00000  21.98712   0.00000 [A]
               0.00000   0.00000  38.62677 [A]
Box-lengths:  21.98712  21.98712  38.62677 Box-angles:   90.00000  90.00000  90.00000 [degrees]
Volume: 18673.48046 [A^3]

Loadings per component:
----------------------------------------------------------------------------------------------------------------------------------------------------
Component 0 (CO2), current number of integer/fractional/reaction molecules: 0/1/0, density:   0.00000 [kg/m^3]
	Fractional molecule-id: 0, max. Lambda-change: 0.500000 (CFMC) 0.500000 (CB/CFMC)
	Lambda factors: 0.500000 0.500000 0.500000 
	Biasing Factors: 0.000000 0.000000 0.000000 0.000000 0.000000 0.000000 0.000000 0.000000 0.000000 0.000000 
	                 0.000000 0.000000 0.000000 0.000000 0.000000 0.000000 0.000000 0.000000 0.000000 0.000000 
	                 0.000000 
	absolute adsorption:   0.00000 [mol/uc],         0.0000 [mol/kg],              0.0000 [mg/g]
	                                                  0.0000 [cm^3 STP/g],          0.0000 [cm^3 STP/cm^3]
	excess adsorption:    -0.13875 [mol/uc],        -0.0152 [mol/kg],             -0.6680 [mg/g]
	                                                 -0.3403 [cm^3 STP/g],         -0.2765 [cm^3 STP/cm^3]
----------------------------------------------------------------------------------------------------------------------------------------------------
Component 1 (N2), current number of integer/fractional/reaction molecules: 0/1/0, density:   0.00000 [kg/m^3]
	Fractional molecule-id: 1, max. Lambda-change: 0.500000 (CFMC) 0.500000 (CB/CFMC)
	Lambda factors: 0.500000 0.500000 0.500000 
	Biasing Factors: 0.000000 0.000000 0.000000 0.000000 0.000000 0.000000 0.000000 0.000000 0.000000 0.000000 
	                 0.000000 0.000000 0.000000 0.000000 0.000000 0.000000 0.000000 0.000000 0.000000 0.000000 
[...]
====================================
	Block[ 0]            0.00000 [K]
	Block[ 1]            0.00000 [K]
	Block[ 2]            0.00000 [K]
	Block[ 3]            0.00000 [K]
	Block[ 4]            0.00000 [K]
	------------------------------------------------------------------------------
	Average              0.00000 [K] +/-            0.00000 [K]

Average Cation Intra charge-bonddipole Coulomb energy:
====================================
	Block[ 0]            0.00000 [K]
	Block[ 1]            0.00000 [K]
	Block[ 2]            0.00000 [K]
	Block[ 3]            0.00000 [K]
	Block[ 4]            0.00000 [K]
	------------------------------------------------------------------------------
	Average              0.00000 [K] +/-            0.00000 [K]

Average Cation Intra bonddipole-bonddipole Coulomb energy:
====================================
	Block[ 0]            0.00000 [K]
	Block[ 1]            0.00000 [K]
	Block[ 2]            0.00000 [K]
	Block[ 3]            0.00000 [K]
	Block[ 4]            0.00000 [K]
	------------------------------------------------------------------------------
	Average              0.00000 [K] +/-            0.00000 [K]

Average Host-Host energy:
=========================
	Block[ 0] 0.00000            Van der Waals: 0.00000            Coulomb: 0.00000            [K]
	Block[ 1] 0.00000            Van der Waals: 0.00000            Coulomb: 0.00000            [K]
	Block[ 2] 0.00000            Van der Waals: 0.00000            Coulomb: 0.00000            [K]
	Block[ 3] 0.00000            Van der Waals: 0.00000            Coulomb: 0.00000            [K]
	Block[ 4] 0.00000            Van der Waals: 0.00000            Coulomb: 0.00000            [K]
	------------------------------------------------------------------------------
	Average   0.00000            Van der Waals: 0.000000           Coulomb: 0.00000            [K]
	      +/- 0.00000                       +/- 0.000000                +/- 0.00000            [K]

Average Adsorbate-Adsorbate energy:
===================================
	Block[ 0] -2781.03258        Van der Waals: -2300.18868        Coulomb: -480.84390         [K]
	Block[ 1] -2804.16084        Van der Waals: -2312.70698        Coulomb: -491.45386         [K]
	Block[ 2] -2989.82360        Van der Waals: -2476.30249        Coulomb: -513.52111         [K]
	Block[ 3] -2746.02569        Van der Waals: -2269.31582        Coulomb: -476.70986         [K]
	Block[ 4] -2768.94738        Van der Waals: -2285.90442        Coulomb: -483.04296         [K]
	------------------------------------------------------------------------------
	Average   -2817.99802        Van der Waals: -2328.883679       Coulomb: -489.11434         [K]
	      +/- 122.06183                     +/- 104.262623              +/- 18.20659           [K]

Average Cation-Cation energy:
=============================
	Block[ 0] 0.00000            Van der Waals: 0.00000            Coulomb: 0.00000            [K]
	Block[ 1] 0.00000            Van der Waals: 0.00000            Coulomb: 0.00000            [K]
	Block[ 2] 0.00000            Van der Waals: 0.00000            Coulomb: 0.00000            [K]
	Block[ 3] 0.00000            Van der Waals: 0.00000            Coulomb: 0.00000            [K]
	Block[ 4] 0.00000            Van der Waals: 0.00000            Coulomb: 0.00000            [K]
	------------------------------------------------------------------------------
	Average   0.00000            Van der Waals: 0.000000           Coulomb: 0.00000            [K]
	      +/- 0.00000                       +/- 0.000000                +/- 0.00000            [K]

Average Host-Adsorbate energy:
==============================
	Block[ 0] -48394.07333       Van der Waals: -40929.36264       Coulomb: -7464.71070        [K]
	Block[ 1] -48583.65572       Van der Waals: -41128.33021       Coulomb: -7455.32550        [K]
	Block[ 2] -50327.33208       Van der Waals: -42595.84288       Coulomb: -7731.48920        [K]
	Block[ 3] -48333.62182       Van der Waals: -40927.46375       Coulomb: -7406.15807        [K]
	Block[ 4] -48371.87204       Van der Waals: -40887.19437       Coulomb: -7484.67767        [K]
	------------------------------------------------------------------------------
	Average   -48802.11100       Van der Waals: -41293.638770      Coulomb: -7508.47223        [K]
	      +/- 1065.25803                    +/- 911.238807              +/- 158.87670          [K]

Average Host-Cation energy:
===========================
	Block[ 0] 0.00000            Van der Waals: 0.00000            Coulomb: 0.00000            [K]
	Block[ 1] 0.00000            Van der Waals: 0.00000            Coulomb: 0.00000            [K]
	Block[ 2] 0.00000            Van der Waals: 0.00000            Coulomb: 0.00000            [K]
	Block[ 3] 0.00000            Van der Waals: 0.00000            Coulomb: 0.00000            [K]
	Block[ 4] 0.00000            Van der Waals: 0.00000            Coulomb: 0.00000            [K]
	------------------------------------------------------------------------------
	Average   0.00000            Van der Waals: 0.000000           Coulomb: 0.00000            [K]
	      +/- 0.00000                       +/- 0.000000                +/- 0.00000            [K]

Average Adsorbate-Cation energy:
================================
	Block[ 0] 0.00000            Van der Waals: 0.00000            Coulomb: 0.00000            [K]
	Block[ 1] 0.00000            Van der Waals: 0.00000            Coulomb: 0.00000            [K]
	Block[ 2] 0.00000            Van der Waals: 0.00000            Coulomb: 0.00000            [K]
	Block[ 3] 0.00000            Van der Waals: 0.00000            Coulomb: 0.00000            [K]
	Block[ 4] 0.00000            Van der Waals: 0.00000            Coulomb: 0.00000            [K]
	------------------------------------------------------------------------------
	Average   0.00000            Van der Waals: 0.000000           Coulomb: 0.00000            [K]
	      +/- 0.00000                       +/- 0.000000                +/- 0.00000            [K]

Host polarization energy:
=======================
	Block[ 0]            0.00000 [K]
	Block[ 1]            0.00000 [K]
	Block[ 2]            0.00000 [K]
	Block[ 3]            0.00000 [K]
	Block[ 4]            0.00000 [K]
	------------------------------------------------------------------------------
	Average              0.00000 [K] +/-            0.00000 [K]

Adsorbate polarization energy:
=======================
	Block[ 0]            0.00000 [K]
	Block[ 1]            0.00000 [K]
	Block[ 2]            0.00000 [K]
	Block[ 3]            0.00000 [K]
	Block[ 4]            0.00000 [K]
	------------------------------------------------------------------------------
	Average              0.00000 [K] +/-            0.00000 [K]

Cation polarization energy:
=======================
	Block[ 0]            0.00000 [K]
	Block[ 1]            0.00000 [K]
	Block[ 2]            0.00000 [K]
	Block[ 3]            0.00000 [K]
	Block[ 4]            0.00000 [K]
	------------------------------------------------------------------------------
	Average              0.00000 [K] +/-            0.00000 [K]

Host back-polarization energy:
=======================
	Block[ 0]            0.00000 [K]
	Block[ 1]            0.00000 [K]
	Block[ 2]            0.00000 [K]
	Block[ 3]            0.00000 [K]
	Block[ 4]            0.00000 [K]
	------------------------------------------------------------------------------
	Average              0.00000 [K] +/-            0.00000 [K]

Adsorbate back-polarization energy:
=======================
	Block[ 0]            0.00000 [K]
	Block[ 1]            0.00000 [K]
	Block[ 2]            0.00000 [K]
	Block[ 3]            0.00000 [K]
	Block[ 4]            0.00000 [K]
	------------------------------------------------------------------------------
	Average              0.00000 [K] +/-            0.00000 [K]

Cation back-polarization energy:
=======================
	Block[ 0]            0.00000 [K]
	Block[ 1]            0.00000 [K]
	Block[ 2]            0.00000 [K]
	Block[ 3]            0.00000 [K]
	Block[ 4]            0.00000 [K]
	------------------------------------------------------------------------------
	Average              0.00000 [K] +/-            0.00000 [K]

Tail-correction energy:
=======================
	Block[ 0]       -12696.94741 [K]
	Block[ 1]       -12708.74225 [K]
	Block[ 2]       -12784.09406 [K]
	Block[ 3]       -12696.68017 [K]
	Block[ 4]       -12690.17818 [K]
	------------------------------------------------------------------------------
	Average         -12715.32841 [K] +/-           48.44197 [K]

Distance-constraints energy:
=======================
	Block[ 0]            0.00000 [K]
	Block[ 1]            0.00000 [K]
	Block[ 2]            0.00000 [K]
	Block[ 3]            0.00000 [K]
	Block[ 4]            0.00000 [K]
	------------------------------------------------------------------------------
	Average              0.00000 [K] +/-            0.00000 [K]

Angle-constraints energy:
=======================
	Block[ 0]            0.00000 [K]
	Block[ 1]            0.00000 [K]
	Block[ 2]            0.00000 [K]
	Block[ 3]            0.00000 [K]
	Block[ 4]            0.00000 [K]
	------------------------------------------------------------------------------
	Average              0.00000 [K] +/-            0.00000 [K]

Dihedral-constraints energy:
=======================
	Block[ 0]            0.00000 [K]
	Block[ 1]            0.00000 [K]
	Block[ 2]            0.00000 [K]
	Block[ 3]            0.00000 [K]
	Block[ 4]            0.00000 [K]
	------------------------------------------------------------------------------
	Average              0.00000 [K] +/-            0.00000 [K]

Inversion-bend constraints energy:
=======================
	Block[ 0]            0.00000 [K]
	Block[ 1]            0.00000 [K]
	Block[ 2]            0.00000 [K]
	Block[ 3]            0.00000 [K]
	Block[ 4]            0.00000 [K]
	------------------------------------------------------------------------------
	Average              0.00000 [K] +/-            0.00000 [K]

Out-of-plane-distance constraints energy:
=======================
	Block[ 0]            0.00000 [K]
	Block[ 1]            0.00000 [K]
	Block[ 2]            0.00000 [K]
	Block[ 3]            0.00000 [K]
	Block[ 4]            0.00000 [K]
	------------------------------------------------------------------------------
	Average              0.00000 [K] +/-            0.00000 [K]

Exclusion-constraints energy:
=======================
	Block[ 0]            0.00000 [K]
	Block[ 1]            0.00000 [K]
	Block[ 2]            0.00000 [K]
	Block[ 3]            0.00000 [K]
	Block[ 4]            0.00000 [K]
	------------------------------------------------------------------------------
	Average              0.00000 [K] +/-            0.00000 [K]

Total energy:
=============
	Block[ 0]       -66333.44377 [K]
	Block[ 1]       -66568.02068 [K]
	Block[ 2]       -68594.73921 [K]
	Block[ 3]       -66257.85939 [K]
	Block[ 4]       -66295.22071 [K]
	------------------------------------------------------------------------------
	Average         -66809.85675 [K] +/-         1247.78201 [K]

Number of molecules:
====================

Component 0 [CO2]
-------------------------------------------------------------
	Block[ 0] 20.13453           [-]
	Block[ 1] 20.29165           [-]
	Block[ 2] 21.02350           [-]
	Block[ 3] 20.14621           [-]
	Block[ 4] 20.08433           [-]
	------------------------------------------------------------------------------
	Average loading absolute                             20.3360422358 +/-       0.4866205718 [-]
	Average loading absolute [molecules/unit cell]       20.3360422358 +/-       0.4866205718 [-]
	Average loading absolute [mol/kg framework]                  2.2253672141 +/-       0.0532507483 [-]
	Average loading absolute [milligram/gram framework]         97.9134869813 +/-       2.3429690238 [-]
	Average loading absolute [cm^3 (STP)/gr framework]          49.8793267671 +/-       1.1935609807 [-]
	Average loading absolute [cm^3 (STP)/cm^3 framework]        40.5330299870 +/-       0.9699137129 [-]

	Block[ 0] 19.99579           [-]
	Block[ 1] 20.15290           [-]
	Block[ 2] 20.88475           [-]
	Block[ 3] 20.00746           [-]
	Block[ 4] 19.94558           [-]
	------------------------------------------------------------------------------
	Average loading excess                             20.1972966149 +/-       0.4866205718 [-]
	Average loading excess [molecules/unit cell]       20.1972966149 +/-       0.4866205718 [-]
	Average loading excess [mol/kg framework]                    2.2101843210 +/-       0.0532507483 [-]
	Average loading excess [milligram/gram framework]           97.2454579034 +/-       2.3429690238 [-]
	Average loading excess [cm^3 (STP)/gr framework]            49.5390177689 +/-       1.1935609807 [-]
	Average loading excess [cm^3 (STP)/cm^3 framework]          40.2564874648 +/-       0.9699137129 [-]

Component 1 [N2]
-------------------------------------------------------------
	Block[ 0] 1.43833            [-]
	Block[ 1] 1.40067            [-]
	Block[ 2] 1.49400            [-]
	Block[ 3] 1.42106            [-]
	Block[ 4] 1.41534            [-]
	------------------------------------------------------------------------------
	Average loading absolute                              1.4338783636 +/-       0.0449541709 [-]
	Average loading absolute [molecules/unit cell]        1.4338783636 +/-       0.0449541709 [-]
	Average loading absolute [mol/kg framework]                  0.1569088942 +/-       0.0049193219 [-]
	Average loading absolute [milligram/gram framework]          4.3955641692 +/-       0.1378073259 [-]
	Average loading absolute [cm^3 (STP)/gr framework]           3.5169521490 +/-       0.1102615620 [-]
	Average loading absolute [cm^3 (STP)/cm^3 framework]         2.8579521047 +/-       0.0896009527 [-]

	Block[ 0] 1.29958            [-]
	Block[ 1] 1.26192            [-]
	Block[ 2] 1.35525            [-]
	Block[ 3] 1.28232            [-]
	Block[ 4] 1.27659            [-]
	------------------------------------------------------------------------------
	Average loading excess                              1.2951327427 +/-       0.0449541709 [-]
	Average loading excess [molecules/unit cell]        1.2951327427 +/-       0.0449541709 [-]
	Average loading excess [mol/kg framework]                    0.1417260011 +/-       0.0049193219 [-]
	Average loading excess [milligram/gram framework]            3.9702384964 +/-       0.1378073259 [-]
	Average loading excess [cm^3 (STP)/gr framework]             3.1766431507 +/-       0.1102615620 [-]
	Average loading excess [cm^3 (STP)/cm^3 framework]           2.5814095825 +/-       0.0896009527 [-]


Average Widom Rosenbluth factor:
================================
	Block[ 0] 0 [-]
	Block[ 1] 0 [-]
	Block[ 2] 0 [-]
	Block[ 3] 0 [-]
	Block[ 4] 0 [-]
	------------------------------------------------------------------------------
	[CO2] Average Widom Rosenbluth-weight:   0 +/- 0.000000 [-]
	Block[ 0] 0 [-]
	Block[ 1] 0 [-]
	Block[ 2] 0 [-]
	Block[ 3] 0 [-]
	Block[ 4] 0 [-]
	------------------------------------------------------------------------------
	[N2] Average Widom Rosenbluth-weight:   0 +/- 0.000000 [-]

Average Widom chemical potential:
=================================
	Block[ 0] 0 [-]
	Block[ 1] 0 [-]
	Block[ 2] 0 [-]
	Block[ 3] 0 [-]
	Block[ 4] 0 [-]
	------------------------------------------------------------------------------
	[CO2] Average chemical potential:   0 +/- 0.000000 [K]
	Block[ 0] 0 [-]
	Block[ 1] 0 [-]
	Block[ 2] 0 [-]
	Block[ 3] 0 [-]
	Block[ 4] 0 [-]
	------------------------------------------------------------------------------
	[N2] Average chemical potential:   0 +/- 0.000000 [K]

Average Widom Ideal-gas contribution:
=====================================
	Block[ 0] 0 [-]
	Block[ 1] 0 [-]
	Block[ 2] 0 [-]
	Block[ 3] 0 [-]
	Block[ 4] 0 [-]
	------------------------------------------------------------------------------
	[CO2] Average Widom Ideal-gas chemical potential:   0 +/- 0.000000 [-]
	Block[ 0] 0 [-]
	Block[ 1] 0 [-]
	Block[ 2] 0 [-]
	Block[ 3] 0 [-]
	Block[ 4] 0 [-]
	------------------------------------------------------------------------------
	[N2] Average Widom Ideal-gas chemical potential:   0 +/- 0.000000 [-]

Average Widom excess contribution:
==================================
	Block[ 0] 0 [-]
	Block[ 1] 0 [-]
	Block[ 2] 0 [-]
	Block[ 3] 0 [-]
	Block[ 4] 0 [-]
	------------------------------------------------------------------------------
	[CO2] Average Widom excess chemical potential:   0 +/- 0.000000 [-]
	Block[ 0] 0 [-]
	Block[ 1] 0 [-]
	Block[ 2] 0 [-]
	Block[ 3] 0 [-]
	Block[ 4] 0 [-]
	------------------------------------------------------------------------------
	[N2] Average Widom excess chemical potential:   0 +/- 0.000000 [-]

Average Gibbs Widom Rosenbluth factor:
======================================
	Block[ 0] 0 [-]
	Block[ 1] 0 [-]
	Block[ 2] 0 [-]
	Block[ 3] 0 [-]
	Block[ 4] 0 [-]
	------------------------------------------------------------------------------
	[CO2] Average Gibbs Widom Rosenbluth-weight:   0 +/- 0.000000 [-]
	Block[ 0] 0 [-]
	Block[ 1] 0 [-]
	Block[ 2] 0 [-]
	Block[ 3] 0 [-]
	Block[ 4] 0 [-]
	------------------------------------------------------------------------------
	[N2] Average Gibbs Widom Rosenbluth-weight:   0 +/- 0.000000 [-]

Average Gibbs Widom chemical potential:
=======================================
	Block[ 0] 0 [-]
	Block[ 1] 0 [-]
	Block[ 2] 0 [-]
	Block[ 3] 0 [-]
	Block[ 4] 0 [-]
	------------------------------------------------------------------------------
	[CO2] Average Gibbs chemical potential:   0 +/- 0.000000 [K]
	Block[ 0] 0 [-]
	Block[ 1] 0 [-]
	Block[ 2] 0 [-]
	Block[ 3] 0 [-]
	Block[ 4] 0 [-]
	------------------------------------------------------------------------------
	[N2] Average Gibbs chemical potential:   0 +/- 0.000000 [K]

Average Gibbs Widom Ideal-gas contribution:
===========================================
	Block[ 0] 0 [-]
	Block[ 1] 0 [-]
	Block[ 2] 0 [-]
	Block[ 3] 0 [-]
	Block[ 4] 0 [-]
	------------------------------------------------------------------------------
	[CO2] Average Gibbs Ideal-gas chemical potential:   0 +/- 0.000000 [-]
	Block[ 0] 0 [-]
	Block[ 1] 0 [-]
	Block[ 2] 0 [-]
	Block[ 3] 0 [-]
	Block[ 4] 0 [-]
	------------------------------------------------------------------------------
	[N2] Average Gibbs Ideal-gas chemical potential:   0 +/- 0.000000 [-]

Average Gibbs Widom excess contribution:
===========================================
	Block[ 0] 0 [-]
	Block[ 1] 0 [-]
	Block[ 2] 0 [-]
	Block[ 3] 0 [-]
	Block[ 4] 0 [-]
	------------------------------------------------------------------------------
	[CO2] Average Gibbs excess chemical potential:   0 +/- 0.000000 [-]
	Block[ 0] 0 [-]
	Block[ 1] 0 [-]
	Block[ 2] 0 [-]
	Block[ 3] 0 [-]
	Block[ 4] 0 [-]
	------------------------------------------------------------------------------
	[N2] Average Gibbs excess chemical potential:   0 +/- 0.000000 [-]

Average Henry coefficient:
==========================
	Block[ 0] 0 [mol/kg/Pa]
	Block[ 1] 0 [mol/kg/Pa]
	Block[ 2] 0 [mol/kg/Pa]
	Block[ 3] 0 [mol/kg/Pa]
	Block[ 4] 0 [mol/kg/Pa]
	------------------------------------------------------------------------------
	[CO2] Average Henry coefficient:  0 +/- 0 [mol/kg/Pa]
	Block[ 0] 0 [mol/kg/Pa]
	Block[ 1] 0 [mol/kg/Pa]
	Block[ 2] 0 [mol/kg/Pa]
	Block[ 3] 0 [mol/kg/Pa]
	Block[ 4] 0 [mol/kg/Pa]
	------------------------------------------------------------------------------
	[N2] Average Henry coefficient:  0 +/- 0 [mol/kg/Pa]

Average adsorption energy <U_gh>_1-<U_h>_0 obtained from Widom-insertion:
(Note: the total heat of adsorption is dH=<U_gh>_1-<U_h>_0 - <U_g> - RT)
=========================================================================

Simulation finished,  0 warnings


Wed May 19 16:43:24 2021
Simulation finished on Wednesday, May 19.
The end time was 04:43 PM.

