Compiler and run-time data
===========================================================================
RASPA 2.0.45
Compiled as a 64-bits application
Compiler: gcc Apple LLVM 12.0.5 (clang-1205.0.22.9)
Compile Date = May 18 2021, Compile Time = 12:54:12

Tue May 18 15:22:20 2021
Simulation started on Tuesday, May 18.
The start time was 03:22 PM.

Cpu data:    x86_64
Cpu Model:   MacPro7,1
Host name:   MacPro.local
OS release:  20.4.0
OS type:     Darwin
OS version:  20E232


Simulation
===========================================================================
Dimensions: 3
Random number seed: 1621344140
RASPA directory set to: /Users/dubbelda/RASPA/simulations/
String appended to output-files: 
Number of cycles: 25000
Number of initializing cycles: 0
Number of equilibration cycles: 0
Print every: 1000
Rectangular boundary condition applied
Timestep: 0.000500
	Degrees of freedom:                        0
	Translational Degrees of freedom:          0
	Rotational Degrees of freedom:             0
	Degrees of freedom Framework:              0


Mutual consistent basic set of units:
======================================
Unit of temperature: Kelvin
Unit of length:      1e-10 [m]
Unit of time:        1e-12 [s]
Unit of mass:        1.66054e-27 [kg]
Unit of charge:      1.60218e-19 [C/particle]

Derived units and their conversion factors:
===========================================
Unit of energy:              1.66054e-23 [J]
Unit of force:               1.66054e-13 [N]
Unit of pressure:            1.66054e+07 [Pa]
Unit of velocity:            100 [m/s]
Unit of acceleration:        1e-08 [m^2/s]
Unit of diffusion:           1e-08 [m^2/s]
Unit of dipole moment:       1.60218e-29 [C.m]
Unit of electric potential:  0.000103643 [V]
Unit of electric field:      1.03643e+06 [V]
Unit of polarizability:      1.54587e-35 [-]
Unit of Coulomb potential:   167101.0800066561  [K]
Unit of dielectric constant: 0.0000154587       [s^2 C^2/(kg m^3)]
Unit of wave vectors:        5.3088374589       [cm^1]
Boltzmann constant:          0.8314464919       [-]

Internal conversion factors:
===========================================
Energy to Kelvin:                                    1.2027242847
FH correction factor                                 2.0211930949
Heat capacity conversion factor:                    10.0000088723
From Debye to internal units:                        4.8032067991
Isothermal compressibility conversion factor:        0.0000000602

Energy conversion factors:
===========================================
From mdyne/A to kcal/mol/A^2:           143.933
From mdyne/A to kj/mol/A^2:             602.214
From mdyne/A to K/A^2:                  72429.7
From mdyne A/rad^2 to kcal/mol/deg^2:   0.0438444


Properties computed
===========================================================================
Movies: no
Radial Distribution Function: no
Number of molecules GCMC histogram: no
Histogram of the molecule positions: no
Free energy profiles: no
Pore Size Distribution Function: no
End-to-end distance: no
Histogram of the energy of the system: no
Compute thermodynamic factors: no
Framework spacing histograms: no
Residence times histograms: no
Distance histograms: no
Bend Angle histograms: no
Dihedral angle histograms: no
Angle between planes histograms: no
Molecule properties: no
Infra-red spectra: no
Mean-squared displacement using modified order-N algorithm: no
Velocity-autocorrelation function modified order-N algorithm: no
Rotational velocity-autocorrelation function modified order-N algorithm: no
Molecular orientation-autocorrelation function modified order-N algorithm: no
Bond orientation-autocorrelation function modified order-N algorithm: no
Mean-squared displacement (conventional algorithm): no
Velocity-autocorrelation function (conventional algorithm): no
3D density grid for adsorbates: no
Compute cation an/or adsorption sites: no
dcTST snapshots: no
Compute pressure and stress: no


VTK
===========================================================================
VTK fractional-range position framework atoms: [-0.001000,1.001000] [-0.001000,1.001000] [-0.001000,1.001000]
VTK fractional-range position framework bonds: [-0.151000,1.151000] [-0.151000,1.151000] [-0.151000,1.151000]
VTK fractional-range com-position adsorbate molecules: [-0.101000,1.101000] [-0.101000,1.101000] [-0.101000,1.101000]
VTK fractional-range com-position cation molecules: [-0.101000,1.101000] [-0.101000,1.101000] [-0.101000,1.101000]
	3D free energy grid made for the full simulation-cell


Thermo/Baro-stat NHC parameters
===========================================================================
External temperature: 573 [K]
Beta: 0.00209899 [energy unit]
External Pressure: 0 [Pa]


Thermostat chain-length: 3
Timescale parameter for thermostat: 0.150000 [ps]
Barostat chain-length:   3
Timescale parameter for barostat:   0.150000 [ps]

Number of Yoshida-Suzuki decomposition steps: 5
Number of respa steps: 5


Method and settings for electrostatics
===============================================================================
Dielectric constant of the medium : 1.000000
Charge from charge-equilibration: no
Ewald summation is used (exact solution of a periodic system)
Relative precision                : 1e-06
Alpha convergence parameter       : 0.265058
kvec (x,y,z)                      : 8 8 8


CFC-RXMC parameters
===========================================================================
Number of reactions: 0


Rattle parameters
===========================================================================
Distance constraint type: r^2-r^2_0
Bend angle constraint type: theta-theta_0
Dihedral angle constraint type: phi-phi_0
Inversion-bend angle constraint type: chi-chi_0
Out-of-plane distance constraint type: r-r_0


Spectra parameters
===========================================================================
Compute normal modes: no


Minimization parameters
===========================================================================
Generalized coordinates are: Cartesian center-of-mass, elements of the orientational matrix p1,p2,p3 and strain
Potential derivatives are evaluated: analytically
Translation of the system is removed from the generalized Hessian: no
Rotation of the system is removed from the generalized Hessian: no
Maximum step-length: 0.3
Convergence factor: 1
Maximum number of minimization steps: 10000
Use gradients in the line-minimizations: yes
RMS gradient tolerance: 1e-06
Maximum gradient tolerance: 1e-06

Distance constraints: 0
Angle constraints: 0
Dihedral constraints: 0

Improper dihedral constraints: 0

Inversion-bend constraints: 0

Out-of-plane constraints: 0

Harmonic distance constraints: 0
Harmonic angle constraints: 0
Harmonic dihedral constraints: 0

Dihedral mid-point measurements: 0

All framework atoms are fixed

Fixed adsorbate atoms:  
Fixed adsorbate groups (center-of-mass):  
Fixed adsorbate groups (orientation):  

Fixed cation atoms:  
Fixed cation groups (center-of-mass):  
Fixed cation groups (orientation):  


dcTST parameters
===========================================================================
Free energy profiles computed: no
Free energy profiles written every 5000 cycles
Free energy mapping: mapped to a,b,c-coordinates
BarrierPosition:       0.0000000000       0.0000000000       0.0000000000
BarrierNormal:         0.0000000000       0.0000000000       0.0000000000
Start with a molecule on top of the barrier: no
Maximum distance to barrier (e.g. distance to minumum free energy):       0.0000000000 [A]
Maximum trajectory time:      10.0000000000 [ps]
Each configuration is used with 5 different initial velocities


Cbmc parameters
===========================================================================
Biasing method: using only the VDW part
Number of trial positions:                                       10
Number of trial positions (reinsertion):                         10
Number of trial positions (partial reinsertion):                 10
Number of trial positions (identity-change):                     10
Number of trial positions (Gibbs particle transfer):             10
Number of trial positions (insertion/deletion):                  10
Number of trial positions (Widom insertion):                     10
Number of trial positions coupled Torsion-selection:             100
Number of trial positions first bead:                            10
Number of trial positions first bead (reinsertion):              10
Number of trial positions first bead (partial reinsertion):      10
Number of trial positions first bead (identity-change):          10
Number of trial positions first bead (Gibbs particle transfer):  10
Number of trial positions first bead (insertion/deletion):       10
Number of trial positions first bead (Widom insertion):          10
Number of trial moves per open bead:                             150
Target acceptance ratio small-mc scheme:                         0.400000
Energy overlap criteria:                                         1e+07
Minimal Rosenbluth factor:                                       1e-150


Pseudo atoms: 14
===========================================================================
Pseudo Atom[   0] Name UNIT     Oxidation:          Element: H    pdb-name: H    Scat. Types:   1   1 Mass=1.000000000  B-factor:0.000   
                 Charge=1.000000000          Polarization=0.000000000  [A^3] (considered a charged atom and no polarization)  Interactions: yes
                 Anisotropic factor:    0.000 [-] (Absolute), Radius:    1.000 [A], Framework-atom:  no
Pseudo Atom[   1] Name He       Oxidation: +0       Element: He   pdb-name: He   Scat. Types:   3   2 Mass=4.002602000  B-factor:1.000   
                 Charge=0.000000000          Polarization=0.000000000  [A^3] (considered a chargeless atom and no polarization)  Interactions: yes
                 Anisotropic factor:    0.000 [-] (Relative), Radius:    1.000 [A], Framework-atom:  no
Pseudo Atom[   2] Name C_co2    Oxidation: +0       Element: C    pdb-name: C    Scat. Types:   7   6 Mass=12.000000000 B-factor:1.000   
                 Charge=0.651200000          Polarization=0.000000000  [A^3] (considered a charged atom and no polarization)  Interactions: yes
                 Anisotropic factor:    0.000 [-] (Relative), Radius:    0.720 [A], Framework-atom:  no
Pseudo Atom[   3] Name O_co2    Oxidation: +0       Element: O    pdb-name: O    Scat. Types:   9   8 Mass=15.999400000 B-factor:1.000   
                 Charge=-0.325600000         Polarization=0.000000000  [A^3] (considered a charged atom and no polarization)  Interactions: yes
                 Anisotropic factor:    0.000 [-] (Relative), Radius:    0.680 [A], Framework-atom:  no
Pseudo Atom[   4] Name O_o2     Oxidation: +0       Element: O    pdb-name: O    Scat. Types:   9   8 Mass=15.999400000 B-factor:1.000   
                 Charge=-0.112000000         Polarization=0.000000000  [A^3] (considered a charged atom and no polarization)  Interactions: yes
                 Anisotropic factor:    0.000 [-] (Relative), Radius:    0.700 [A], Framework-atom:  no
Pseudo Atom[   5] Name O_com    Oxidation: +0       Element: -    pdb-name: O    Scat. Types:   0   8 Mass=0.000000000  B-factor:1.000   
                 Charge=0.224000000          Polarization=0.000000000  [A^3] (considered a charged atom and no polarization)  Interactions: yes
                 Anisotropic factor:    0.000 [-] (Relative), Radius:    0.700 [A], Framework-atom:  no
Pseudo Atom[   6] Name N_n2     Oxidation: +0       Element: N    pdb-name: N    Scat. Types:   8   7 Mass=14.006740000 B-factor:1.000   
                 Charge=-0.405000000         Polarization=0.000000000  [A^3] (considered a charged atom and no polarization)  Interactions: yes
                 Anisotropic factor:    0.000 [-] (Relative), Radius:    0.700 [A], Framework-atom:  no
Pseudo Atom[   7] Name N_com    Oxidation: +0       Element: -    pdb-name: N    Scat. Types:   0   7 Mass=0.000000000  B-factor:1.000   
                 Charge=0.810000000          Polarization=0.000000000  [A^3] (considered a charged atom and no polarization)  Interactions: yes
                 Anisotropic factor:    0.000 [-] (Relative), Radius:    0.700 [A], Framework-atom:  no
Pseudo Atom[   8] Name Ar       Oxidation: +0       Element: Ar   pdb-name: Ar   Scat. Types:  19  18 Mass=39.948000000 B-factor:1.000   
                 Charge=0.000000000          Polarization=0.000000000  [A^3] (considered a chargeless atom and no polarization)  Interactions: yes
                 Anisotropic factor:    0.000 [-] (Relative), Radius:    0.700 [A], Framework-atom:  no
Pseudo Atom[   9] Name CH4      Oxidation: +0       Element: C    pdb-name: C    Scat. Types:   7   6 Mass=16.042460000 B-factor:1.000   
                 Charge=0.000000000          Polarization=0.000000000  [A^3] (considered a chargeless atom and no polarization)  Interactions: yes
                 Anisotropic factor:    0.000 [-] (Relative), Radius:    1.000 [A], Framework-atom:  no
Pseudo Atom[  10] Name CH3      Oxidation: +0       Element: C    pdb-name: C    Scat. Types:   7   6 Mass=15.034520000 B-factor:1.000   
                 Charge=0.000000000          Polarization=0.000000000  [A^3] (considered a chargeless atom and no polarization)  Interactions: yes
                 Anisotropic factor:    0.000 [-] (Relative), Radius:    1.000 [A], Framework-atom:  no
Pseudo Atom[  11] Name CH2      Oxidation: +0       Element: C    pdb-name: C    Scat. Types:   7   6 Mass=14.026580000 B-factor:1.000   
                 Charge=0.000000000          Polarization=0.000000000  [A^3] (considered a chargeless atom and no polarization)  Interactions: yes
                 Anisotropic factor:    0.000 [-] (Relative), Radius:    1.000 [A], Framework-atom:  no
Pseudo Atom[  12] Name CH       Oxidation: +0       Element: C    pdb-name: C    Scat. Types:   7   6 Mass=13.018640000 B-factor:1.000   
                 Charge=0.000000000          Polarization=0.000000000  [A^3] (considered a chargeless atom and no polarization)  Interactions: yes
                 Anisotropic factor:    0.000 [-] (Relative), Radius:    1.000 [A], Framework-atom:  no
Pseudo Atom[  13] Name C        Oxidation: +0       Element: C    pdb-name: C    Scat. Types:   7   6 Mass=12.000000000 B-factor:1.000   
                 Charge=0.000000000          Polarization=0.000000000  [A^3] (considered a chargeless atom and no polarization)  Interactions: yes
                 Anisotropic factor:    0.000 [-] (Relative), Radius:    1.000 [A], Framework-atom:  no


Forcefield: ExampleZeolitesForceField
===========================================================================
Minimal distance: 1
CutOff VDW : 12.000000 (144.000000)
CutOff VDW switching on: 10.800000 (116.640000)
CutOff charge-charge : 12.000000 (144.000000)
CutOff charge-charge switching on: 7.800000 (60.840000)
CutOff charge-bonddipole : 12.000000 (144.000000)
CutOff charge-bondipole switching on: 8.400000 (70.560000)
CutOff bonddipole-bonddipole : 12.000000 (144.000000)
CutOff bonddipole-bondipole switching on: 9.000000 (81.000000)
Polarization is neglected
All potentials are shifted to zero at the Cutoff

General mixing rule: Lorentz-Berthelot mixing rules are used FIRST for cross terms
0 cross terms are overwritten using the individual mixing rules from the file 'force_field_mixing_rules.def'
and then 0 terms are overwritten using the specific interactions from the file 'force_field.def'

The force field and all the interactions:
     He -      He [LENNARD_JONES] p_0/k_B:  10.90000 [K], p_1: 2.64000 [A], shift/k_B:  -0.00494280 [K], tailcorrection: no
     He -   C_co2 [LENNARD_JONES] p_0/k_B:  18.06294 [K], p_1: 2.69250 [A], shift/k_B:  -0.00921806 [K], tailcorrection: no
     He -   O_co2 [LENNARD_JONES] p_0/k_B:  30.55837 [K], p_1: 2.82850 [A], shift/k_B:  -0.02095875 [K], tailcorrection: no
     He -    O_o2 [LENNARD_JONES] p_0/k_B:  24.03539 [K], p_1: 2.97000 [A], shift/k_B:  -0.02209340 [K], tailcorrection: no
     He -   O_com [ZERO_POTENTIAL]
     He -    N_n2 [LENNARD_JONES] p_0/k_B:  20.43155 [K], p_1: 2.97300 [A], shift/k_B:  -0.01889482 [K], tailcorrection: no
     He -   N_com [ZERO_POTENTIAL]
     He -      Ar [LENNARD_JONES] p_0/k_B:  36.77449 [K], p_1: 3.01000 [A], shift/k_B:  -0.03662773 [K], tailcorrection: no
     He -     CH4 [LENNARD_JONES] p_0/k_B:  41.56501 [K], p_1: 3.18000 [A], shift/k_B:  -0.05755893 [K], tailcorrection: no
     He -     CH3 [LENNARD_JONES] p_0/k_B:  34.31035 [K], p_1: 3.20000 [A], shift/k_B:  -0.04933343 [K], tailcorrection: no
     He -     CH2 [LENNARD_JONES] p_0/k_B:  24.70627 [K], p_1: 3.30000 [A], shift/k_B:  -0.04272436 [K], tailcorrection: no
     He -      CH [LENNARD_JONES] p_0/k_B:  13.61249 [K], p_1: 3.65500 [A], shift/k_B:  -0.04343978 [K], tailcorrection: no
     He -       C [LENNARD_JONES] p_0/k_B:   2.95296 [K], p_1: 4.51000 [A], shift/k_B:  -0.03319436 [K], tailcorrection: no
  C_co2 -   C_co2 [LENNARD_JONES] p_0/k_B:  29.93300 [K], p_1: 2.74500 [A], shift/k_B:  -0.01715199 [K], tailcorrection: no
  C_co2 -   O_co2 [LENNARD_JONES] p_0/k_B:  50.63981 [K], p_1: 2.88100 [A], shift/k_B:  -0.03878296 [K], tailcorrection: no
  C_co2 -    O_o2 [LENNARD_JONES] p_0/k_B:  39.83025 [K], p_1: 3.02250 [A], shift/k_B:  -0.04066985 [K], tailcorrection: no
  C_co2 -   O_com [ZERO_POTENTIAL]
  C_co2 -    N_n2 [LENNARD_JONES] p_0/k_B:  33.85815 [K], p_1: 3.02550 [A], shift/k_B:  -0.03477820 [K], tailcorrection: no
  C_co2 -   N_com [ZERO_POTENTIAL]
  C_co2 -      Ar [LENNARD_JONES] p_0/k_B:  60.94085 [K], p_1: 3.06250 [A], shift/k_B:  -0.06733139 [K], tailcorrection: no
  C_co2 -     CH4 [LENNARD_JONES] p_0/k_B:  68.87946 [K], p_1: 3.23250 [A], shift/k_B:  -0.10522708 [K], tailcorrection: no
  C_co2 -     CH3 [LENNARD_JONES] p_0/k_B:  56.85740 [K], p_1: 3.25250 [A], shift/k_B:  -0.09013451 [K], tailcorrection: no
  C_co2 -     CH2 [LENNARD_JONES] p_0/k_B:  40.94201 [K], p_1: 3.35250 [A], shift/k_B:  -0.07783014 [K], tailcorrection: no
  C_co2 -      CH [LENNARD_JONES] p_0/k_B:  22.55795 [K], p_1: 3.70750 [A], shift/k_B:  -0.07841175 [K], tailcorrection: no
  C_co2 -       C [LENNARD_JONES] p_0/k_B:   4.89351 [K], p_1: 4.56250 [A], shift/k_B:  -0.05895165 [K], tailcorrection: no
  O_co2 -   O_co2 [LENNARD_JONES] p_0/k_B:  85.67100 [K], p_1: 3.01700 [A], shift/k_B:  -0.08652638 [K], tailcorrection: no
  O_co2 -    O_o2 [LENNARD_JONES] p_0/k_B:  67.38370 [K], p_1: 3.15850 [A], shift/k_B:  -0.08959179 [K], tailcorrection: no
  O_co2 -   O_com [ZERO_POTENTIAL]
  O_co2 -    N_n2 [LENNARD_JONES] p_0/k_B:  57.28026 [K], p_1: 3.16150 [A], shift/k_B:  -0.07659340 [K], tailcorrection: no
  O_co2 -   N_com [ZERO_POTENTIAL]
  O_co2 -      Ar [LENNARD_JONES] p_0/k_B: 103.09802 [K], p_1: 3.19850 [A], shift/k_B:  -0.14782408 [K], tailcorrection: no
  O_co2 -     CH4 [LENNARD_JONES] p_0/k_B: 116.52834 [K], p_1: 3.36850 [A], shift/k_B:  -0.22793491 [K], tailcorrection: no
  O_co2 -     CH3 [LENNARD_JONES] p_0/k_B:  96.18975 [K], p_1: 3.38850 [A], shift/k_B:  -0.19495125 [K], tailcorrection: no
  O_co2 -     CH2 [LENNARD_JONES] p_0/k_B:  69.26454 [K], p_1: 3.48850 [A], shift/k_B:  -0.16712968 [K], tailcorrection: no
  O_co2 -      CH [LENNARD_JONES] p_0/k_B:  38.16290 [K], p_1: 3.84350 [A], shift/k_B:  -0.16462890 [K], tailcorrection: no
  O_co2 -       C [LENNARD_JONES] p_0/k_B:   8.27870 [K], p_1: 4.69850 [A], shift/k_B:  -0.11888367 [K], tailcorrection: no
   O_o2 -    O_o2 [LENNARD_JONES] p_0/k_B:  53.00000 [K], p_1: 3.30000 [A], shift/k_B:  -0.09165246 [K], tailcorrection: no
   O_o2 -   O_com [ZERO_POTENTIAL]
   O_o2 -    N_n2 [LENNARD_JONES] p_0/k_B:  45.05324 [K], p_1: 3.30300 [A], shift/k_B:  -0.07833594 [K], tailcorrection: no
   O_o2 -   N_com [ZERO_POTENTIAL]
   O_o2 -      Ar [LENNARD_JONES] p_0/k_B:  81.09075 [K], p_1: 3.34000 [A], shift/k_B:  -0.15073728 [K], tailcorrection: no
   O_o2 -     CH4 [LENNARD_JONES] p_0/k_B:  91.65424 [K], p_1: 3.51000 [A], shift/k_B:  -0.22945404 [K], tailcorrection: no
   O_o2 -     CH3 [LENNARD_JONES] p_0/k_B:  75.65712 [K], p_1: 3.53000 [A], shift/k_B:  -0.19596976 [K], tailcorrection: no
   O_o2 -     CH2 [LENNARD_JONES] p_0/k_B:  54.47935 [K], p_1: 3.63000 [A], shift/k_B:  -0.16684428 [K], tailcorrection: no
   O_o2 -      CH [LENNARD_JONES] p_0/k_B:  30.01666 [K], p_1: 3.98500 [A], shift/k_B:  -0.16081332 [K], tailcorrection: no
   O_o2 -       C [LENNARD_JONES] p_0/k_B:   6.51153 [K], p_1: 4.84000 [A], shift/k_B:  -0.11164876 [K], tailcorrection: no
  O_com -   O_com [ZERO_POTENTIAL]
  O_com -    N_n2 [ZERO_POTENTIAL]
  O_com -   N_com [ZERO_POTENTIAL]
  O_com -      Ar [ZERO_POTENTIAL]
  O_com -     CH4 [ZERO_POTENTIAL]
  O_com -     CH3 [ZERO_POTENTIAL]
  O_com -     CH2 [ZERO_POTENTIAL]
  O_com -      CH [ZERO_POTENTIAL]
  O_com -       C [ZERO_POTENTIAL]
   N_n2 -    N_n2 [LENNARD_JONES] p_0/k_B:  38.29800 [K], p_1: 3.30600 [A], shift/k_B:  -0.06695388 [K], tailcorrection: no
   N_n2 -   N_com [ZERO_POTENTIAL]
   N_n2 -      Ar [LENNARD_JONES] p_0/k_B:  68.93209 [K], p_1: 3.34300 [A], shift/k_B:  -0.12882767 [K], tailcorrection: no
   N_n2 -     CH4 [LENNARD_JONES] p_0/k_B:  77.91170 [K], p_1: 3.51300 [A], shift/k_B:  -0.19605171 [K], tailcorrection: no
   N_n2 -     CH3 [LENNARD_JONES] p_0/k_B:  64.31317 [K], p_1: 3.53300 [A], shift/k_B:  -0.16743696 [K], tailcorrection: no
   N_n2 -     CH2 [LENNARD_JONES] p_0/k_B:  46.31078 [K], p_1: 3.63300 [A], shift/k_B:  -0.14253201 [K], tailcorrection: no
   N_n2 -      CH [LENNARD_JONES] p_0/k_B:  25.51599 [K], p_1: 3.98800 [A], shift/k_B:  -0.13731894 [K], tailcorrection: no
   N_n2 -       C [LENNARD_JONES] p_0/k_B:   5.53520 [K], p_1: 4.84300 [A], shift/k_B:  -0.09526024 [K], tailcorrection: no
  N_com -   N_com [ZERO_POTENTIAL]
  N_com -      Ar [ZERO_POTENTIAL]
  N_com -     CH4 [ZERO_POTENTIAL]
  N_com -     CH3 [ZERO_POTENTIAL]
  N_com -     CH2 [ZERO_POTENTIAL]
  N_com -      CH [ZERO_POTENTIAL]
  N_com -       C [ZERO_POTENTIAL]
     Ar -      Ar [LENNARD_JONES] p_0/k_B: 124.07000 [K], p_1: 3.38000 [A], shift/k_B:  -0.24769804 [K], tailcorrection: no
     Ar -     CH4 [LENNARD_JONES] p_0/k_B: 140.23229 [K], p_1: 3.55000 [A], shift/k_B:  -0.37575039 [K], tailcorrection: no
     Ar -     CH3 [LENNARD_JONES] p_0/k_B: 115.75647 [K], p_1: 3.57000 [A], shift/k_B:  -0.32079374 [K], tailcorrection: no
     Ar -     CH2 [LENNARD_JONES] p_0/k_B:  83.35418 [K], p_1: 3.67000 [A], shift/k_B:  -0.27260937 [K], tailcorrection: no
     Ar -      CH [LENNARD_JONES] p_0/k_B:  45.92592 [K], p_1: 4.02500 [A], shift/k_B:  -0.26122023 [K], tailcorrection: no
     Ar -       C [LENNARD_JONES] p_0/k_B:   9.96273 [K], p_1: 4.88000 [A], shift/k_B:  -0.17943247 [K], tailcorrection: no
    CH4 -     CH4 [LENNARD_JONES] p_0/k_B: 158.50000 [K], p_1: 3.72000 [A], shift/k_B:  -0.56217796 [K], tailcorrection: no
    CH4 -     CH3 [LENNARD_JONES] p_0/k_B: 130.83577 [K], p_1: 3.74000 [A], shift/k_B:  -0.47921501 [K], tailcorrection: no
    CH4 -     CH2 [LENNARD_JONES] p_0/k_B:  94.21253 [K], p_1: 3.84000 [A], shift/k_B:  -0.40420524 [K], tailcorrection: no
    CH4 -      CH [LENNARD_JONES] p_0/k_B:  51.90857 [K], p_1: 4.19500 [A], shift/k_B:  -0.37827707 [K], tailcorrection: no
    CH4 -       C [LENNARD_JONES] p_0/k_B:  11.26055 [K], p_1: 5.05000 [A], shift/k_B:  -0.24880626 [K], tailcorrection: no
    CH3 -     CH3 [LENNARD_JONES] p_0/k_B: 108.00000 [K], p_1: 3.76000 [A], shift/k_B:  -0.40842485 [K], tailcorrection: no
    CH3 -     CH2 [LENNARD_JONES] p_0/k_B:  77.76889 [K], p_1: 3.86000 [A], shift/k_B:  -0.34420794 [K], tailcorrection: no
    CH3 -      CH [LENNARD_JONES] p_0/k_B:  42.84857 [K], p_1: 4.21500 [A], shift/k_B:  -0.32127575 [K], tailcorrection: no
    CH3 -       C [LENNARD_JONES] p_0/k_B:   9.29516 [K], p_1: 5.07000 [A], shift/k_B:  -0.21028090 [K], tailcorrection: no
    CH2 -     CH2 [LENNARD_JONES] p_0/k_B:  56.00000 [K], p_1: 3.96000 [A], shift/k_B:  -0.28891522 [K], tailcorrection: no
    CH2 -      CH [LENNARD_JONES] p_0/k_B:  30.85450 [K], p_1: 4.31500 [A], shift/k_B:  -0.26621710 [K], tailcorrection: no
    CH2 -       C [LENNARD_JONES] p_0/k_B:   6.69328 [K], p_1: 5.17000 [A], shift/k_B:  -0.17012512 [K], tailcorrection: no
     CH -      CH [LENNARD_JONES] p_0/k_B:  17.00000 [K], p_1: 4.67000 [A], shift/k_B:  -0.23540268 [K], tailcorrection: no
     CH -       C [LENNARD_JONES] p_0/k_B:   3.68782 [K], p_1: 5.52500 [A], shift/k_B:  -0.13918063 [K], tailcorrection: no
      C -       C [LENNARD_JONES] p_0/k_B:   0.80000 [K], p_1: 6.38000 [A], shift/k_B:  -0.07064236 [K], tailcorrection: no


MoleculeDefinitions:
===========================================================================
Component 0 [pentane] (Adsorbate molecule)

	MoleculeDefinitions: ExampleDefinitions
	Component contains no atoms with charge
	Component contains no atoms with point dipoles (polarization)
	Component has a net charge of 0.000000

	Ideal chain Rosenbluth weight: 1
	Ideal chain total energy: 0.000000

	Critical temparure [K]: 469.700000
	Critical pressure [Pa]: 3370000.000000
	Acentric factor [-]: 0.251000

	RXMC partition factor ln(q/V) [ln(A^(-3))]:       0.0000000000

	Vapour=stable, Liquid=metastable

	MolFraction:           1.0000000000 [-]
	Compressibility:       0.0000000000 [-]

	Density of the bulk fluid phase:       0.0000000000 [kg/m^3]


	Amount of excess molecules:       0.0000000000 [-]

	Conversion factor molecules/unit cell -> mol/kg:                inf [-]
	Conversion factor molecules/unit cell -> mg/g:                inf [-]
	Conversion factor molecules/unit cell -> cm^3 STP/gr:                inf [-]
	Conversion factor molecules/unit cell -> cm^3 STP/cm^3:       1.3784916574 [-]
	Conversion factor mol/kg -> cm^3 STP/gr:      22.4139757476 [-]
	Conversion factor mol/kg -> cm^3 STP/cm^3:       0.0000000000 [-]

	Partial pressure: -16605402.00000000000000 [Pa]
	                    -124540.51499999999942 [Torr]
	                       -166.05402000000001 [bar]
	                       -163.88257586972614 [atm]

	Fugacity coefficient:      -1.0000000000 [-]

	Partial fugacity:  16605402.00000000000000 [Pa]
	                     124540.51499999999942 [Torr]
	                        166.05402000000001 [bar]
	                        163.88257586972614 [atm]

	Molecule contains 5 number of atoms
		atom:    0  is of type:   10 [       CH3] (group: 0)
		atom:    1  is of type:   11 [       CH2] (group: 0)
		atom:    2  is of type:   11 [       CH2] (group: 0)
		atom:    3  is of type:   11 [       CH2] (group: 0)
		atom:    4  is of type:   10 [       CH3] (group: 0)

	Molecule contains 0 chirality centers

	Molecule contains 1 number of groups

		group: 0 containing: 5 elements
		-------------------------------------------------
		the group is modelled as flexible, i.e. no constraints
		Mass: 72.148780 [a.u.]
		Mass: 4.437255 [kg/m^3]

		Rotational Degrees of freedom: 0
		Diagonalized inertia vector:       0.0000000000
		                                   0.0000000000
		                                   0.0000000000
		element: 0 atom: 0 [       CH3] Charge:  0.000000 Anisotropy: 0.000000 Connectivity: 1 (1 )
		element: 1 atom: 1 [       CH2] Charge:  0.000000 Anisotropy: 0.000000 Connectivity: 2 (0 2 )
		element: 2 atom: 2 [       CH2] Charge:  0.000000 Anisotropy: 0.000000 Connectivity: 2 (1 3 )
		element: 3 atom: 3 [       CH2] Charge:  0.000000 Anisotropy: 0.000000 Connectivity: 2 (2 4 )
		element: 4 atom: 4 [       CH3] Charge:  0.000000 Anisotropy: 0.000000 Connectivity: 1 (3 )

		Dipole:           0.0000000000 [D]
		Quadrupole:       0.0000000000       0.0000000000       0.0000000000 [D Angstrom]
		Quadrupole tensor [D Angstrom]
				       0.0000000000       0.0000000000       0.0000000000
				       0.0000000000       0.0000000000       0.0000000000
				       0.0000000000       0.0000000000       0.0000000000

	Starting bead for growth               : 0

	Degrees of freedom                     : 0
	Translational degrees of freedom       : 0
	Rotational degrees of freedom          : 0
	Vibrational degrees of freedom         : 0
	Constraint degrees of freedom          : 0

	Number of atoms                        : 5

	Number of constraint bonds             : 0
	Number of constraint bends             : 0
	Number of constraint inversion bends   : 0
	Number of constraint torsions          : 0
	Number of constraint improper torsions : 0
	Number of constraint improper torsions : 0

	Number of bonds                        : 4
	Number of Urey-Bradleys                : 0
	Number of bends                        : 3
	Number of inversion bends              : 0
	Number of torsions                     : 2
	Number of improper torsions            : 0
	Number of improper torsions            : 0

	Number of bond/bond cross terms        : 0
	Number of bond/bend cross terms        : 0
	Number of bend/bend cross terms        : 0
	Number of stretch/torsion cross terms  : 0
	Number of bend/torsion cross terms     : 0

	Number of charges                      : 0
	Number of bond-dipoles                 : 0

	Number of intra Van der Waals                             : 1
	Number of intra charge-charge Coulomb                     : 0
	Number of intra charge-bonddipole Coulomb                 : 0
	Number of intra bonddipole-bonddipole Coulomb             : 0

	Number of excluded intra charge-charge Coulomb                     : 0
	Number of excluded intra charge-bonddipole Coulomb                 : 0
	Number of excluded intra bonddipole-bonddipole Coulomb             : 0

	Number of cbmc-config moves                               : 6

	Particle Moves:             
		ProbabilityTranslationMove:                  0.000000
			TranslationDirection:      XYZ
		Percentage of random translation moves:            0.000000
		Percentage of rotation moves:                      0.000000
		Percentage of random rotation moves:               0.000000
		Percentage of partial reinsertion moves:           0.000000
		Percentage of reinsertion moves:                   0.000000
		Percentage of reinsertion-in-place moves:          0.000000
		Percentage of reinsertion-in-plane moves:          0.000000
		Percentage of identity-change moves:               0.000000
		Percentage of swap (insert/delete) moves:          0.000000
		Percentage of CF swap lambda moves:                0.000000
		Percentage of CB/CFMC swap lambda moves:           0.000000
		Percentage of Widom insertion moves:               100.000000
		Percentage of CF-Widom insertion moves:            0.000000
		Percentage of Gibbs Widom insertion moves:         0.000000
		Percentage of surface-area moves:                  0.000000
		Percentage of Gibbs particle-transfer moves:       0.000000
		Percentage of Gibbs identity-change moves:         0.000000
		Percentage of CF Gibbs lambda-transfer moves:      0.000000
		Percentage of CB/CFMC Gibbs lambda-transfer moves: 0.000000
		Percentage of exchange frac./int. particle moves:  0.000000
		Percentage of fractional mol. to other box moves:  0.000000
		Percentage of lambda-change moves:                 0.000000
		Percentage of fractional to integer moves:         0.000000

	System Moves:
		Percentage of parallel-tempering moves:            0.000000
		Percentage of hyper-parallel-tempering moves:      0.000000
		Percentage of parallel-mol-fraction moves:         0.000000
			   Component A: 0 B: 1
		Percentage of chiral inversion moves:              0.000000
		Percentage of Hybrid-NVE moves:                    0.000000
		Percentage of Hybrid-NPH moves:                    0.000000
		Percentage of Hybrid-NPHPR moves:                  0.000000
		Percentage of volume-change moves:                 0.000000
		Percentage of box-shape-change moves:              0.000000
		Percentage of Gibbs volume-change moves:           0.000000
		Percentage of framework-change moves:              0.000000
		Percentage of framework-shift moves:               0.000000
		Percentage of reactive MC moves:                   0.000000

	Moves are restricted: No
	No biased sampling used for this component

	Number of Bonds: 4
	--------------------------------------------
	Bond interaction 0: A=0 B=1 Type:HARMONIC_BOND
		HARMONIC_BOND: p_0/k_B=96500.000000 [K/A^2], p_1=1.540000   [A]
	Bond interaction 1: A=1 B=2 Type:HARMONIC_BOND
		HARMONIC_BOND: p_0/k_B=96500.000000 [K/A^2], p_1=1.540000   [A]
	Bond interaction 2: A=2 B=3 Type:HARMONIC_BOND
		HARMONIC_BOND: p_0/k_B=96500.000000 [K/A^2], p_1=1.540000   [A]
	Bond interaction 3: A=3 B=4 Type:HARMONIC_BOND
		HARMONIC_BOND: p_0/k_B=96500.000000 [K/A^2], p_1=1.540000   [A]

	Number of Bends: 3
	--------------------------------------------
	Bend interaction 0: A=0 B=1 C=2 Type:HARMONIC_BEND
		HARMONIC_BEND: p_0/k_B=62500.000000 [K/rad^2], p_1=114.000000 [degrees]
	Bend interaction 1: A=1 B=2 C=3 Type:HARMONIC_BEND
		HARMONIC_BEND: p_0/k_B=62500.000000 [K/rad^2], p_1=114.000000 [degrees]
	Bend interaction 2: A=2 B=3 C=4 Type:HARMONIC_BEND
		HARMONIC_BEND: p_0/k_B=62500.000000 [K/rad^2], p_1=114.000000 [degrees]

	Number of Torsions: 2
	--------------------------------------------
	Torsions interaction 0: A=0 B=1 C=2 D=3 Type:TRAPPE_DIHEDRAL
		TRAPPE_DIHEDRAL: p_0/k_B=0.000000   [K], p_1/k_B=355.030000 [K], p_2/k_B=-68.190000 [K], p_3/k_B=791.320000 [K]
	Torsions interaction 1: A=1 B=2 C=3 D=4 Type:TRAPPE_DIHEDRAL
		TRAPPE_DIHEDRAL: p_0/k_B=0.000000   [K], p_1/k_B=355.030000 [K], p_2/k_B=-68.190000 [K], p_3/k_B=791.320000 [K]

	number of intra VDW interactions: 1
	--------------------------------------------
	interaction 0: A=0 B=4  scaling factor: 1

	number of cbmc-config changes: 6
	--------------------------------------------
	nr fixed 3: 0 1 2 
	nr fixed 3: 4 3 2 
	nr fixed 2: 0 1 
	nr fixed 2: 4 3 
	nr fixed 1: 0 
	nr fixed 1: 4 

	number of identity-config changes: 1
	--------------------------------------------
	nr fixed 1: 0 

	Number of pockets blocked in a unitcell: 0
		Pockets are NOT blocked for this component

Component 1 [hexane] (Adsorbate molecule)

	MoleculeDefinitions: ExampleDefinitions
	Component contains no atoms with charge
	Component contains no atoms with point dipoles (polarization)
	Component has a net charge of 0.000000

	Ideal chain Rosenbluth weight: 1
	Ideal chain total energy: 0.000000

	Critical temparure [K]: 507.820000
	Critical pressure [Pa]: 3034000.000000
	Acentric factor [-]: 0.299000

	RXMC partition factor ln(q/V) [ln(A^(-3))]:       0.0000000000

	Vapour=stable, Liquid=metastable

	MolFraction:           1.0000000000 [-]
	Compressibility:       0.0000000000 [-]

	Density of the bulk fluid phase:       0.0000000000 [kg/m^3]


	Amount of excess molecules:       0.0000000000 [-]

	Conversion factor molecules/unit cell -> mol/kg:                inf [-]
	Conversion factor molecules/unit cell -> mg/g:                inf [-]
	Conversion factor molecules/unit cell -> cm^3 STP/gr:                inf [-]
	Conversion factor molecules/unit cell -> cm^3 STP/cm^3:       1.3784916574 [-]
	Conversion factor mol/kg -> cm^3 STP/gr:      22.4139757476 [-]
	Conversion factor mol/kg -> cm^3 STP/cm^3:       0.0000000000 [-]

	Partial pressure: -16605402.00000000000000 [Pa]
	                    -124540.51499999999942 [Torr]
	                       -166.05402000000001 [bar]
	                       -163.88257586972614 [atm]

	Fugacity coefficient:      -1.0000000000 [-]

	Partial fugacity:  16605402.00000000000000 [Pa]
	                     124540.51499999999942 [Torr]
	                        166.05402000000001 [bar]
	                        163.88257586972614 [atm]

	Molecule contains 6 number of atoms
		atom:    0  is of type:   10 [       CH3] (group: 0)
		atom:    1  is of type:   11 [       CH2] (group: 0)
		atom:    2  is of type:   11 [       CH2] (group: 0)
		atom:    3  is of type:   11 [       CH2] (group: 0)
		atom:    4  is of type:   11 [       CH2] (group: 0)
		atom:    5  is of type:   10 [       CH3] (group: 0)

	Molecule contains 0 chirality centers

	Molecule contains 1 number of groups

		group: 0 containing: 6 elements
		-------------------------------------------------
		the group is modelled as flexible, i.e. no constraints
		Mass: 86.175360 [a.u.]
		Mass: 5.299910 [kg/m^3]

		Rotational Degrees of freedom: 0
		Diagonalized inertia vector:       0.0000000000
		                                   0.0000000000
		                                   0.0000000000
		element: 0 atom: 0 [       CH3] Charge:  0.000000 Anisotropy: 0.000000 Connectivity: 1 (1 )
		element: 1 atom: 1 [       CH2] Charge:  0.000000 Anisotropy: 0.000000 Connectivity: 2 (0 2 )
		element: 2 atom: 2 [       CH2] Charge:  0.000000 Anisotropy: 0.000000 Connectivity: 2 (1 3 )
		element: 3 atom: 3 [       CH2] Charge:  0.000000 Anisotropy: 0.000000 Connectivity: 2 (2 4 )
		element: 4 atom: 4 [       CH2] Charge:  0.000000 Anisotropy: 0.000000 Connectivity: 2 (3 5 )
		element: 5 atom: 5 [       CH3] Charge:  0.000000 Anisotropy: 0.000000 Connectivity: 1 (4 )

		Dipole:           0.0000000000 [D]
		Quadrupole:       0.0000000000       0.0000000000       0.0000000000 [D Angstrom]
		Quadrupole tensor [D Angstrom]
				       0.0000000000       0.0000000000       0.0000000000
				       0.0000000000       0.0000000000       0.0000000000
				       0.0000000000       0.0000000000       0.0000000000

	Starting bead for growth               : 0

	Degrees of freedom                     : 0
	Translational degrees of freedom       : 0
	Rotational degrees of freedom          : 0
	Vibrational degrees of freedom         : 0
	Constraint degrees of freedom          : 0

	Number of atoms                        : 6

	Number of constraint bonds             : 0
	Number of constraint bends             : 0
	Number of constraint inversion bends   : 0
	Number of constraint torsions          : 0
	Number of constraint improper torsions : 0
	Number of constraint improper torsions : 0

	Number of bonds                        : 5
	Number of Urey-Bradleys                : 0
	Number of bends                        : 4
	Number of inversion bends              : 0
	Number of torsions                     : 3
	Number of improper torsions            : 0
	Number of improper torsions            : 0

	Number of bond/bond cross terms        : 0
	Number of bond/bend cross terms        : 0
	Number of bend/bend cross terms        : 0
	Number of stretch/torsion cross terms  : 0
	Number of bend/torsion cross terms     : 0

	Number of charges                      : 0
	Number of bond-dipoles                 : 0

	Number of intra Van der Waals                             : 3
	Number of intra charge-charge Coulomb                     : 0
	Number of intra charge-bonddipole Coulomb                 : 0
	Number of intra bonddipole-bonddipole Coulomb             : 0

	Number of excluded intra charge-charge Coulomb                     : 0
	Number of excluded intra charge-bonddipole Coulomb                 : 0
	Number of excluded intra bonddipole-bonddipole Coulomb             : 0

	Number of cbmc-config moves                               : 8

	Particle Moves:             
		ProbabilityTranslationMove:                  0.000000
			TranslationDirection:      XYZ
		Percentage of random translation moves:            0.000000
		Percentage of rotation moves:                      0.000000
		Percentage of random rotation moves:               0.000000
		Percentage of partial reinsertion moves:           0.000000
		Percentage of reinsertion moves:                   0.000000
		Percentage of reinsertion-in-place moves:          0.000000
		Percentage of reinsertion-in-plane moves:          0.000000
		Percentage of identity-change moves:               0.000000
		Percentage of swap (insert/delete) moves:          0.000000
		Percentage of CF swap lambda moves:                0.000000
		Percentage of CB/CFMC swap lambda moves:           0.000000
		Percentage of Widom insertion moves:               100.000000
		Percentage of CF-Widom insertion moves:            0.000000
		Percentage of Gibbs Widom insertion moves:         0.000000
		Percentage of surface-area moves:                  0.000000
		Percentage of Gibbs particle-transfer moves:       0.000000
		Percentage of Gibbs identity-change moves:         0.000000
		Percentage of CF Gibbs lambda-transfer moves:      0.000000
		Percentage of CB/CFMC Gibbs lambda-transfer moves: 0.000000
		Percentage of exchange frac./int. particle moves:  0.000000
		Percentage of fractional mol. to other box moves:  0.000000
		Percentage of lambda-change moves:                 0.000000
		Percentage of fractional to integer moves:         0.000000

	System Moves:
		Percentage of parallel-tempering moves:            0.000000
		Percentage of hyper-parallel-tempering moves:      0.000000
		Percentage of parallel-mol-fraction moves:         0.000000
			   Component A: 0 B: 1
		Percentage of chiral inversion moves:              0.000000
		Percentage of Hybrid-NVE moves:                    0.000000
		Percentage of Hybrid-NPH moves:                    0.000000
		Percentage of Hybrid-NPHPR moves:                  0.000000
		Percentage of volume-change moves:                 0.000000
		Percentage of box-shape-change moves:              0.000000
		Percentage of Gibbs volume-change moves:           0.000000
		Percentage of framework-change moves:              0.000000
		Percentage of framework-shift moves:               0.000000
		Percentage of reactive MC moves:                   0.000000

	Moves are restricted: No
	No biased sampling used for this component

	Number of Bonds: 5
	--------------------------------------------
	Bond interaction 0: A=0 B=1 Type:HARMONIC_BOND
		HARMONIC_BOND: p_0/k_B=96500.000000 [K/A^2], p_1=1.540000   [A]
	Bond interaction 1: A=1 B=2 Type:HARMONIC_BOND
		HARMONIC_BOND: p_0/k_B=96500.000000 [K/A^2], p_1=1.540000   [A]
	Bond interaction 2: A=2 B=3 Type:HARMONIC_BOND
		HARMONIC_BOND: p_0/k_B=96500.000000 [K/A^2], p_1=1.540000   [A]
	Bond interaction 3: A=3 B=4 Type:HARMONIC_BOND
		HARMONIC_BOND: p_0/k_B=96500.000000 [K/A^2], p_1=1.540000   [A]
	Bond interaction 4: A=4 B=5 Type:HARMONIC_BOND
		HARMONIC_BOND: p_0/k_B=96500.000000 [K/A^2], p_1=1.540000   [A]

	Number of Bends: 4
	--------------------------------------------
	Bend interaction 0: A=0 B=1 C=2 Type:HARMONIC_BEND
		HARMONIC_BEND: p_0/k_B=62500.000000 [K/rad^2], p_1=114.000000 [degrees]
	Bend interaction 1: A=1 B=2 C=3 Type:HARMONIC_BEND
		HARMONIC_BEND: p_0/k_B=62500.000000 [K/rad^2], p_1=114.000000 [degrees]
	Bend interaction 2: A=2 B=3 C=4 Type:HARMONIC_BEND
		HARMONIC_BEND: p_0/k_B=62500.000000 [K/rad^2], p_1=114.000000 [degrees]
	Bend interaction 3: A=3 B=4 C=5 Type:HARMONIC_BEND
		HARMONIC_BEND: p_0/k_B=62500.000000 [K/rad^2], p_1=114.000000 [degrees]

	Number of Torsions: 3
	--------------------------------------------
	Torsions interaction 0: A=0 B=1 C=2 D=3 Type:TRAPPE_DIHEDRAL
		TRAPPE_DIHEDRAL: p_0/k_B=0.000000   [K], p_1/k_B=355.030000 [K], p_2/k_B=-68.190000 [K], p_3/k_B=791.320000 [K]
	Torsions interaction 1: A=1 B=2 C=3 D=4 Type:TRAPPE_DIHEDRAL
		TRAPPE_DIHEDRAL: p_0/k_B=0.000000   [K], p_1/k_B=355.030000 [K], p_2/k_B=-68.190000 [K], p_3/k_B=791.320000 [K]
	Torsions interaction 2: A=2 B=3 C=4 D=5 Type:TRAPPE_DIHEDRAL
		TRAPPE_DIHEDRAL: p_0/k_B=0.000000   [K], p_1/k_B=355.030000 [K], p_2/k_B=-68.190000 [K], p_3/k_B=791.320000 [K]

	number of intra VDW interactions: 3
	--------------------------------------------
	interaction 0: A=0 B=4  scaling factor: 1
	interaction 1: A=0 B=5  scaling factor: 1
	interaction 2: A=1 B=5  scaling factor: 1

	number of cbmc-config changes: 8
	--------------------------------------------
	nr fixed 4: 0 1 2 3 
	nr fixed 4: 5 4 3 2 
	nr fixed 3: 0 1 2 
	nr fixed 3: 5 4 3 
	nr fixed 2: 0 1 
	nr fixed 2: 5 4 
	nr fixed 1: 0 
	nr fixed 1: 5 

	number of identity-config changes: 1
	--------------------------------------------
	nr fixed 1: 0 

	Number of pockets blocked in a unitcell: 0
		Pockets are NOT blocked for this component

Component 2 [heptane] (Adsorbate molecule)

	MoleculeDefinitions: ExampleDefinitions
	Component contains no atoms with charge
	Component contains no atoms with point dipoles (polarization)
	Component has a net charge of 0.000000

	Ideal chain Rosenbluth weight: 1
	Ideal chain total energy: 0.000000

	Critical temparure [K]: 540.130000
	Critical pressure [Pa]: 2736000.000000
	Acentric factor [-]: 0.349000

	RXMC partition factor ln(q/V) [ln(A^(-3))]:       0.0000000000

	Vapour=stable, Liquid=metastable

	MolFraction:           1.0000000000 [-]
	Compressibility:       0.0000000000 [-]

	Density of the bulk fluid phase:       0.0000000000 [kg/m^3]


	Amount of excess molecules:       0.0000000000 [-]

	Conversion factor molecules/unit cell -> mol/kg:                inf [-]
	Conversion factor molecules/unit cell -> mg/g:                inf [-]
	Conversion factor molecules/unit cell -> cm^3 STP/gr:                inf [-]
	Conversion factor molecules/unit cell -> cm^3 STP/cm^3:       1.3784916574 [-]
	Conversion factor mol/kg -> cm^3 STP/gr:      22.4139757476 [-]
	Conversion factor mol/kg -> cm^3 STP/cm^3:       0.0000000000 [-]

	Partial pressure: -16605402.00000000000000 [Pa]
	                    -124540.51499999999942 [Torr]
	                       -166.05402000000001 [bar]
	                       -163.88257586972614 [atm]

	Fugacity coefficient:      -1.0000000000 [-]

	Partial fugacity:  16605402.00000000000000 [Pa]
	                     124540.51499999999942 [Torr]
	                        166.05402000000001 [bar]
	                        163.88257586972614 [atm]

	Molecule contains 7 number of atoms
		atom:    0  is of type:   10 [       CH3] (group: 0)
		atom:    1  is of type:   11 [       CH2] (group: 0)
		atom:    2  is of type:   11 [       CH2] (group: 0)
		atom:    3  is of type:   11 [       CH2] (group: 0)
		atom:    4  is of type:   11 [       CH2] (group: 0)
		atom:    5  is of type:   11 [       CH2] (group: 0)
		atom:    6  is of type:   10 [       CH3] (group: 0)

	Molecule contains 0 chirality centers

	Molecule contains 1 number of groups

		group: 0 containing: 7 elements
		-------------------------------------------------
		the group is modelled as flexible, i.e. no constraints
		Mass: 100.201940 [a.u.]
		Mass: 6.162565 [kg/m^3]

		Rotational Degrees of freedom: 0
		Diagonalized inertia vector:       0.0000000000
		                                   0.0000000000
		                                   0.0000000000
		element: 0 atom: 0 [       CH3] Charge:  0.000000 Anisotropy: 0.000000 Connectivity: 1 (1 )
		element: 1 atom: 1 [       CH2] Charge:  0.000000 Anisotropy: 0.000000 Connectivity: 2 (0 2 )
		element: 2 atom: 2 [       CH2] Charge:  0.000000 Anisotropy: 0.000000 Connectivity: 2 (1 3 )
		element: 3 atom: 3 [       CH2] Charge:  0.000000 Anisotropy: 0.000000 Connectivity: 2 (2 4 )
		element: 4 atom: 4 [       CH2] Charge:  0.000000 Anisotropy: 0.000000 Connectivity: 2 (3 5 )
		element: 5 atom: 5 [       CH2] Charge:  0.000000 Anisotropy: 0.000000 Connectivity: 2 (4 6 )
		element: 6 atom: 6 [       CH3] Charge:  0.000000 Anisotropy: 0.000000 Connectivity: 1 (5 )

		Dipole:           0.0000000000 [D]
		Quadrupole:       0.0000000000       0.0000000000       0.0000000000 [D Angstrom]
		Quadrupole tensor [D Angstrom]
				       0.0000000000       0.0000000000       0.0000000000
				       0.0000000000       0.0000000000       0.0000000000
				       0.0000000000       0.0000000000       0.0000000000

	Starting bead for growth               : 0

	Degrees of freedom                     : 0
	Translational degrees of freedom       : 0
	Rotational degrees of freedom          : 0
	Vibrational degrees of freedom         : 0
	Constraint degrees of freedom          : 0

	Number of atoms                        : 7

	Number of constraint bonds             : 0
	Number of constraint bends             : 0
	Number of constraint inversion bends   : 0
	Number of constraint torsions          : 0
	Number of constraint improper torsions : 0
	Number of constraint improper torsions : 0

	Number of bonds                        : 6
	Number of Urey-Bradleys                : 0
	Number of bends                        : 5
	Number of inversion bends              : 0
	Number of torsions                     : 4
	Number of improper torsions            : 0
	Number of improper torsions            : 0

	Number of bond/bond cross terms        : 0
	Number of bond/bend cross terms        : 0
	Number of bend/bend cross terms        : 0
	Number of stretch/torsion cross terms  : 0
	Number of bend/torsion cross terms     : 0

	Number of charges                      : 0
	Number of bond-dipoles                 : 0

	Number of intra Van der Waals                             : 6
	Number of intra charge-charge Coulomb                     : 0
	Number of intra charge-bonddipole Coulomb                 : 0
	Number of intra bonddipole-bonddipole Coulomb             : 0

	Number of excluded intra charge-charge Coulomb                     : 0
	Number of excluded intra charge-bonddipole Coulomb                 : 0
	Number of excluded intra bonddipole-bonddipole Coulomb             : 0

	Number of cbmc-config moves                               : 10

	Particle Moves:             
		ProbabilityTranslationMove:                  0.000000
			TranslationDirection:      XYZ
		Percentage of random translation moves:            0.000000
		Percentage of rotation moves:                      0.000000
		Percentage of random rotation moves:               0.000000
		Percentage of partial reinsertion moves:           0.000000
		Percentage of reinsertion moves:                   0.000000
		Percentage of reinsertion-in-place moves:          0.000000
		Percentage of reinsertion-in-plane moves:          0.000000
		Percentage of identity-change moves:               0.000000
		Percentage of swap (insert/delete) moves:          0.000000
		Percentage of CF swap lambda moves:                0.000000
		Percentage of CB/CFMC swap lambda moves:           0.000000
		Percentage of Widom insertion moves:               100.000000
		Percentage of CF-Widom insertion moves:            0.000000
		Percentage of Gibbs Widom insertion moves:         0.000000
		Percentage of surface-area moves:                  0.000000
		Percentage of Gibbs particle-transfer moves:       0.000000
		Percentage of Gibbs identity-change moves:         0.000000
		Percentage of CF Gibbs lambda-transfer moves:      0.000000
		Percentage of CB/CFMC Gibbs lambda-transfer moves: 0.000000
		Percentage of exchange frac./int. particle moves:  0.000000
		Percentage of fractional mol. to other box moves:  0.000000
		Percentage of lambda-change moves:                 0.000000
		Percentage of fractional to integer moves:         0.000000

	System Moves:
		Percentage of parallel-tempering moves:            0.000000
		Percentage of hyper-parallel-tempering moves:      0.000000
		Percentage of parallel-mol-fraction moves:         0.000000
			   Component A: 0 B: 1
		Percentage of chiral inversion moves:              0.000000
		Percentage of Hybrid-NVE moves:                    0.000000
		Percentage of Hybrid-NPH moves:                    0.000000
		Percentage of Hybrid-NPHPR moves:                  0.000000
		Percentage of volume-change moves:                 0.000000
		Percentage of box-shape-change moves:              0.000000
		Percentage of Gibbs volume-change moves:           0.000000
		Percentage of framework-change moves:              0.000000
		Percentage of framework-shift moves:               0.000000
		Percentage of reactive MC moves:                   0.000000

	Moves are restricted: No
	No biased sampling used for this component

	Number of Bonds: 6
	--------------------------------------------
	Bond interaction 0: A=0 B=1 Type:HARMONIC_BOND
		HARMONIC_BOND: p_0/k_B=96500.000000 [K/A^2], p_1=1.540000   [A]
	Bond interaction 1: A=1 B=2 Type:HARMONIC_BOND
		HARMONIC_BOND: p_0/k_B=96500.000000 [K/A^2], p_1=1.540000   [A]
	Bond interaction 2: A=2 B=3 Type:HARMONIC_BOND
		HARMONIC_BOND: p_0/k_B=96500.000000 [K/A^2], p_1=1.540000   [A]
	Bond interaction 3: A=3 B=4 Type:HARMONIC_BOND
		HARMONIC_BOND: p_0/k_B=96500.000000 [K/A^2], p_1=1.540000   [A]
	Bond interaction 4: A=4 B=5 Type:HARMONIC_BOND
		HARMONIC_BOND: p_0/k_B=96500.000000 [K/A^2], p_1=1.540000   [A]
	Bond interaction 5: A=5 B=6 Type:HARMONIC_BOND
		HARMONIC_BOND: p_0/k_B=96500.000000 [K/A^2], p_1=1.540000   [A]

	Number of Bends: 5
	--------------------------------------------
	Bend interaction 0: A=0 B=1 C=2 Type:HARMONIC_BEND
		HARMONIC_BEND: p_0/k_B=62500.000000 [K/rad^2], p_1=114.000000 [degrees]
	Bend interaction 1: A=1 B=2 C=3 Type:HARMONIC_BEND
		HARMONIC_BEND: p_0/k_B=62500.000000 [K/rad^2], p_1=114.000000 [degrees]
	Bend interaction 2: A=2 B=3 C=4 Type:HARMONIC_BEND
		HARMONIC_BEND: p_0/k_B=62500.000000 [K/rad^2], p_1=114.000000 [degrees]
	Bend interaction 3: A=3 B=4 C=5 Type:HARMONIC_BEND
		HARMONIC_BEND: p_0/k_B=62500.000000 [K/rad^2], p_1=114.000000 [degrees]
	Bend interaction 4: A=4 B=5 C=6 Type:HARMONIC_BEND
		HARMONIC_BEND: p_0/k_B=62500.000000 [K/rad^2], p_1=114.000000 [degrees]

	Number of Torsions: 4
	--------------------------------------------
	Torsions interaction 0: A=0 B=1 C=2 D=3 Type:TRAPPE_DIHEDRAL
		TRAPPE_DIHEDRAL: p_0/k_B=0.000000   [K], p_1/k_B=355.030000 [K], p_2/k_B=-68.190000 [K], p_3/k_B=791.320000 [K]
	Torsions interaction 1: A=1 B=2 C=3 D=4 Type:TRAPPE_DIHEDRAL
		TRAPPE_DIHEDRAL: p_0/k_B=0.000000   [K], p_1/k_B=355.030000 [K], p_2/k_B=-68.190000 [K], p_3/k_B=791.320000 [K]
	Torsions interaction 2: A=2 B=3 C=4 D=5 Type:TRAPPE_DIHEDRAL
		TRAPPE_DIHEDRAL: p_0/k_B=0.000000   [K], p_1/k_B=355.030000 [K], p_2/k_B=-68.190000 [K], p_3/k_B=791.320000 [K]
	Torsions interaction 3: A=3 B=4 C=5 D=6 Type:TRAPPE_DIHEDRAL
		TRAPPE_DIHEDRAL: p_0/k_B=0.000000   [K], p_1/k_B=355.030000 [K], p_2/k_B=-68.190000 [K], p_3/k_B=791.320000 [K]

	number of intra VDW interactions: 6
	--------------------------------------------
	interaction 0: A=0 B=4  scaling factor: 1
	interaction 1: A=0 B=5  scaling factor: 1
	interaction 2: A=0 B=6  scaling factor: 1
	interaction 3: A=1 B=5  scaling factor: 1
	interaction 4: A=1 B=6  scaling factor: 1
	interaction 5: A=2 B=6  scaling factor: 1

	number of cbmc-config changes: 10
	--------------------------------------------
	nr fixed 5: 0 1 2 3 4 
	nr fixed 5: 6 5 4 3 2 
	nr fixed 4: 0 1 2 3 
	nr fixed 4: 6 5 4 3 
	nr fixed 3: 0 1 2 
	nr fixed 3: 6 5 4 
	nr fixed 2: 6 5 
	nr fixed 2: 0 1 
	nr fixed 1: 6 
	nr fixed 1: 0 

	number of identity-config changes: 1
	--------------------------------------------
	nr fixed 1: 0 

	Number of pockets blocked in a unitcell: 0
		Pockets are NOT blocked for this component

Component 3 [octane] (Adsorbate molecule)

	MoleculeDefinitions: ExampleDefinitions
	Component contains no atoms with charge
	Component contains no atoms with point dipoles (polarization)
	Component has a net charge of 0.000000

	Ideal chain Rosenbluth weight: 1
	Ideal chain total energy: 0.000000

	Critical temparure [K]: 569.320000
	Critical pressure [Pa]: 2497000.000000
	Acentric factor [-]: 0.393000

	RXMC partition factor ln(q/V) [ln(A^(-3))]:       0.0000000000

	Vapour=stable, Liquid=metastable

	MolFraction:           1.0000000000 [-]
	Compressibility:       0.0000000000 [-]

	Density of the bulk fluid phase:       0.0000000000 [kg/m^3]


	Amount of excess molecules:       0.0000000000 [-]

	Conversion factor molecules/unit cell -> mol/kg:                inf [-]
	Conversion factor molecules/unit cell -> mg/g:                inf [-]
	Conversion factor molecules/unit cell -> cm^3 STP/gr:                inf [-]
	Conversion factor molecules/unit cell -> cm^3 STP/cm^3:       1.3784916574 [-]
	Conversion factor mol/kg -> cm^3 STP/gr:      22.4139757476 [-]
	Conversion factor mol/kg -> cm^3 STP/cm^3:       0.0000000000 [-]

	Partial pressure: -16605402.00000000000000 [Pa]
	                    -124540.51499999999942 [Torr]
	                       -166.05402000000001 [bar]
	                       -163.88257586972614 [atm]

	Fugacity coefficient:      -1.0000000000 [-]

	Partial fugacity:  16605402.00000000000000 [Pa]
	                     124540.51499999999942 [Torr]
	                        166.05402000000001 [bar]
	                        163.88257586972614 [atm]

	Molecule contains 8 number of atoms
		atom:    0  is of type:   10 [       CH3] (group: 0)
		atom:    1  is of type:   11 [       CH2] (group: 0)
		atom:    2  is of type:   11 [       CH2] (group: 0)
		atom:    3  is of type:   11 [       CH2] (group: 0)
		atom:    4  is of type:   11 [       CH2] (group: 0)
		atom:    5  is of type:   11 [       CH2] (group: 0)
		atom:    6  is of type:   11 [       CH2] (group: 0)
		atom:    7  is of type:   10 [       CH3] (group: 0)

	Molecule contains 0 chirality centers

	Molecule contains 1 number of groups

		group: 0 containing: 8 elements
		-------------------------------------------------
		the group is modelled as flexible, i.e. no constraints
		Mass: 114.228520 [a.u.]
		Mass: 7.025220 [kg/m^3]

		Rotational Degrees of freedom: 0
		Diagonalized inertia vector:       0.0000000000
		                                   0.0000000000
		                                   0.0000000000
		element: 0 atom: 0 [       CH3] Charge:  0.000000 Anisotropy: 0.000000 Connectivity: 1 (1 )
		element: 1 atom: 1 [       CH2] Charge:  0.000000 Anisotropy: 0.000000 Connectivity: 2 (0 2 )
		element: 2 atom: 2 [       CH2] Charge:  0.000000 Anisotropy: 0.000000 Connectivity: 2 (1 3 )
		element: 3 atom: 3 [       CH2] Charge:  0.000000 Anisotropy: 0.000000 Connectivity: 2 (2 4 )
		element: 4 atom: 4 [       CH2] Charge:  0.000000 Anisotropy: 0.000000 Connectivity: 2 (3 5 )
		element: 5 atom: 5 [       CH2] Charge:  0.000000 Anisotropy: 0.000000 Connectivity: 2 (4 6 )
		element: 6 atom: 6 [       CH2] Charge:  0.000000 Anisotropy: 0.000000 Connectivity: 2 (5 7 )
		element: 7 atom: 7 [       CH3] Charge:  0.000000 Anisotropy: 0.000000 Connectivity: 1 (6 )

		Dipole:           0.0000000000 [D]
		Quadrupole:       0.0000000000       0.0000000000       0.0000000000 [D Angstrom]
		Quadrupole tensor [D Angstrom]
				       0.0000000000       0.0000000000       0.0000000000
				       0.0000000000       0.0000000000       0.0000000000
				       0.0000000000       0.0000000000       0.0000000000

	Starting bead for growth               : 0

	Degrees of freedom                     : 0
	Translational degrees of freedom       : 0
	Rotational degrees of freedom          : 0
	Vibrational degrees of freedom         : 0
	Constraint degrees of freedom          : 0

	Number of atoms                        : 8

	Number of constraint bonds             : 0
	Number of constraint bends             : 0
	Number of constraint inversion bends   : 0
	Number of constraint torsions          : 0
	Number of constraint improper torsions : 0
	Number of constraint improper torsions : 0

	Number of bonds                        : 7
	Number of Urey-Bradleys                : 0
	Number of bends                        : 6
	Number of inversion bends              : 0
	Number of torsions                     : 5
	Number of improper torsions            : 0
	Number of improper torsions            : 0

	Number of bond/bond cross terms        : 0
	Number of bond/bend cross terms        : 0
	Number of bend/bend cross terms        : 0
	Number of stretch/torsion cross terms  : 0
	Number of bend/torsion cross terms     : 0

	Number of charges                      : 0
	Number of bond-dipoles                 : 0

	Number of intra Van der Waals                             : 10
	Number of intra charge-charge Coulomb                     : 0
	Number of intra charge-bonddipole Coulomb                 : 0
	Number of intra bonddipole-bonddipole Coulomb             : 0

	Number of excluded intra charge-charge Coulomb                     : 0
	Number of excluded intra charge-bonddipole Coulomb                 : 0
	Number of excluded intra bonddipole-bonddipole Coulomb             : 0

	Number of cbmc-config moves                               : 10

	Particle Moves:             
		ProbabilityTranslationMove:                  0.000000
			TranslationDirection:      XYZ
		Percentage of random translation moves:            0.000000
		Percentage of rotation moves:                      0.000000
		Percentage of random rotation moves:               0.000000
		Percentage of partial reinsertion moves:           0.000000
		Percentage of reinsertion moves:                   0.000000
		Percentage of reinsertion-in-place moves:          0.000000
		Percentage of reinsertion-in-plane moves:          0.000000
		Percentage of identity-change moves:               0.000000
		Percentage of swap (insert/delete) moves:          0.000000
		Percentage of CF swap lambda moves:                0.000000
		Percentage of CB/CFMC swap lambda moves:           0.000000
		Percentage of Widom insertion moves:               100.000000
		Percentage of CF-Widom insertion moves:            0.000000
		Percentage of Gibbs Widom insertion moves:         0.000000
		Percentage of surface-area moves:                  0.000000
		Percentage of Gibbs particle-transfer moves:       0.000000
		Percentage of Gibbs identity-change moves:         0.000000
		Percentage of CF Gibbs lambda-transfer moves:      0.000000
		Percentage of CB/CFMC Gibbs lambda-transfer moves: 0.000000
		Percentage of exchange frac./int. particle moves:  0.000000
		Percentage of fractional mol. to other box moves:  0.000000
		Percentage of lambda-change moves:                 0.000000
		Percentage of fractional to integer moves:         0.000000

	System Moves:
		Percentage of parallel-tempering moves:            0.000000
		Percentage of hyper-parallel-tempering moves:      0.000000
		Percentage of parallel-mol-fraction moves:         0.000000
			   Component A: 0 B: 1
		Percentage of chiral inversion moves:              0.000000
		Percentage of Hybrid-NVE moves:                    0.000000
		Percentage of Hybrid-NPH moves:                    0.000000
		Percentage of Hybrid-NPHPR moves:                  0.000000
		Percentage of volume-change moves:                 0.000000
		Percentage of box-shape-change moves:              0.000000
		Percentage of Gibbs volume-change moves:           0.000000
		Percentage of framework-change moves:              0.000000
		Percentage of framework-shift moves:               0.000000
		Percentage of reactive MC moves:                   0.000000

	Moves are restricted: No
	No biased sampling used for this component

	Number of Bonds: 7
	--------------------------------------------
	Bond interaction 0: A=0 B=1 Type:HARMONIC_BOND
		HARMONIC_BOND: p_0/k_B=96500.000000 [K/A^2], p_1=1.540000   [A]
	Bond interaction 1: A=1 B=2 Type:HARMONIC_BOND
		HARMONIC_BOND: p_0/k_B=96500.000000 [K/A^2], p_1=1.540000   [A]
	Bond interaction 2: A=2 B=3 Type:HARMONIC_BOND
		HARMONIC_BOND: p_0/k_B=96500.000000 [K/A^2], p_1=1.540000   [A]
	Bond interaction 3: A=3 B=4 Type:HARMONIC_BOND
		HARMONIC_BOND: p_0/k_B=96500.000000 [K/A^2], p_1=1.540000   [A]
	Bond interaction 4: A=4 B=5 Type:HARMONIC_BOND
		HARMONIC_BOND: p_0/k_B=96500.000000 [K/A^2], p_1=1.540000   [A]
	Bond interaction 5: A=5 B=6 Type:HARMONIC_BOND
		HARMONIC_BOND: p_0/k_B=96500.000000 [K/A^2], p_1=1.540000   [A]
	Bond interaction 6: A=6 B=7 Type:HARMONIC_BOND
		HARMONIC_BOND: p_0/k_B=96500.000000 [K/A^2], p_1=1.540000   [A]

	Number of Bends: 6
	--------------------------------------------
	Bend interaction 0: A=0 B=1 C=2 Type:HARMONIC_BEND
		HARMONIC_BEND: p_0/k_B=62500.000000 [K/rad^2], p_1=114.000000 [degrees]
	Bend interaction 1: A=1 B=2 C=3 Type:HARMONIC_BEND
		HARMONIC_BEND: p_0/k_B=62500.000000 [K/rad^2], p_1=114.000000 [degrees]
	Bend interaction 2: A=2 B=3 C=4 Type:HARMONIC_BEND
		HARMONIC_BEND: p_0/k_B=62500.000000 [K/rad^2], p_1=114.000000 [degrees]
	Bend interaction 3: A=3 B=4 C=5 Type:HARMONIC_BEND
		HARMONIC_BEND: p_0/k_B=62500.000000 [K/rad^2], p_1=114.000000 [degrees]
	Bend interaction 4: A=4 B=5 C=6 Type:HARMONIC_BEND
		HARMONIC_BEND: p_0/k_B=62500.000000 [K/rad^2], p_1=114.000000 [degrees]
	Bend interaction 5: A=5 B=6 C=7 Type:HARMONIC_BEND
		HARMONIC_BEND: p_0/k_B=62500.000000 [K/rad^2], p_1=114.000000 [degrees]

	Number of Torsions: 5
	--------------------------------------------
	Torsions interaction 0: A=0 B=1 C=2 D=3 Type:TRAPPE_DIHEDRAL
		TRAPPE_DIHEDRAL: p_0/k_B=0.000000   [K], p_1/k_B=355.030000 [K], p_2/k_B=-68.190000 [K], p_3/k_B=791.320000 [K]
	Torsions interaction 1: A=1 B=2 C=3 D=4 Type:TRAPPE_DIHEDRAL
		TRAPPE_DIHEDRAL: p_0/k_B=0.000000   [K], p_1/k_B=355.030000 [K], p_2/k_B=-68.190000 [K], p_3/k_B=791.320000 [K]
	Torsions interaction 2: A=2 B=3 C=4 D=5 Type:TRAPPE_DIHEDRAL
		TRAPPE_DIHEDRAL: p_0/k_B=0.000000   [K], p_1/k_B=355.030000 [K], p_2/k_B=-68.190000 [K], p_3/k_B=791.320000 [K]
	Torsions interaction 3: A=3 B=4 C=5 D=6 Type:TRAPPE_DIHEDRAL
		TRAPPE_DIHEDRAL: p_0/k_B=0.000000   [K], p_1/k_B=355.030000 [K], p_2/k_B=-68.190000 [K], p_3/k_B=791.320000 [K]
	Torsions interaction 4: A=4 B=5 C=6 D=7 Type:TRAPPE_DIHEDRAL
		TRAPPE_DIHEDRAL: p_0/k_B=0.000000   [K], p_1/k_B=355.030000 [K], p_2/k_B=-68.190000 [K], p_3/k_B=791.320000 [K]

	number of intra VDW interactions: 10
	--------------------------------------------
	interaction 0: A=0 B=4  scaling factor: 1
	interaction 1: A=0 B=5  scaling factor: 1
	interaction 2: A=0 B=6  scaling factor: 1
	interaction 3: A=0 B=7  scaling factor: 1
	interaction 4: A=1 B=5  scaling factor: 1
	interaction 5: A=1 B=6  scaling factor: 1
	interaction 6: A=1 B=7  scaling factor: 1
	interaction 7: A=2 B=6  scaling factor: 1
	interaction 8: A=2 B=7  scaling factor: 1
	interaction 9: A=3 B=7  scaling factor: 1

	number of cbmc-config changes: 10
	--------------------------------------------
	nr fixed 5: 0 1 2 3 4 
	nr fixed 5: 7 6 5 4 3 
	nr fixed 4: 0 1 2 3 
	nr fixed 4: 7 6 5 4 
	nr fixed 3: 0 1 2 
	nr fixed 3: 7 6 5 
	nr fixed 2: 7 6 
	nr fixed 2: 0 1 
	nr fixed 1: 7 
	nr fixed 1: 0 

	number of identity-config changes: 1
	--------------------------------------------
	nr fixed 1: 0 

	Number of pockets blocked in a unitcell: 0
		Pockets are NOT blocked for this component

Component 4 [nonane] (Adsorbate molecule)

	MoleculeDefinitions: ExampleDefinitions
	Component contains no atoms with charge
	Component contains no atoms with point dipoles (polarization)
	Component has a net charge of 0.000000

	Ideal chain Rosenbluth weight: 1
	Ideal chain total energy: 0.000000

	Critical temparure [K]: 594.550000
	Critical pressure [Pa]: 2281000.000000
	Acentric factor [-]: 0.443000

	RXMC partition factor ln(q/V) [ln(A^(-3))]:       0.0000000000

	Vapour=stable, Liquid=metastable

	MolFraction:           1.0000000000 [-]
	Compressibility:       0.0000000000 [-]

	Density of the bulk fluid phase:       0.0000000000 [kg/m^3]


	Amount of excess molecules:       0.0000000000 [-]

	Conversion factor molecules/unit cell -> mol/kg:                inf [-]
	Conversion factor molecules/unit cell -> mg/g:                inf [-]
	Conversion factor molecules/unit cell -> cm^3 STP/gr:                inf [-]
	Conversion factor molecules/unit cell -> cm^3 STP/cm^3:       1.3784916574 [-]
	Conversion factor mol/kg -> cm^3 STP/gr:      22.4139757476 [-]
	Conversion factor mol/kg -> cm^3 STP/cm^3:       0.0000000000 [-]

	Partial pressure: -16605402.00000000000000 [Pa]
	                    -124540.51499999999942 [Torr]
	                       -166.05402000000001 [bar]
	                       -163.88257586972614 [atm]

	Fugacity coefficient:      -1.0000000000 [-]

	Partial fugacity:  16605402.00000000000000 [Pa]
	                     124540.51499999999942 [Torr]
	                        166.05402000000001 [bar]
	                        163.88257586972614 [atm]

	Molecule contains 9 number of atoms
		atom:    0  is of type:   10 [       CH3] (group: 0)
		atom:    1  is of type:   11 [       CH2] (group: 0)
		atom:    2  is of type:   11 [       CH2] (group: 0)
		atom:    3  is of type:   11 [       CH2] (group: 0)
		atom:    4  is of type:   11 [       CH2] (group: 0)
		atom:    5  is of type:   11 [       CH2] (group: 0)
		atom:    6  is of type:   11 [       CH2] (group: 0)
		atom:    7  is of type:   11 [       CH2] (group: 0)
		atom:    8  is of type:   10 [       CH3] (group: 0)

	Molecule contains 0 chirality centers

	Molecule contains 1 number of groups

		group: 0 containing: 9 elements
		-------------------------------------------------
		the group is modelled as flexible, i.e. no constraints
		Mass: 128.255100 [a.u.]
		Mass: 7.887875 [kg/m^3]

		Rotational Degrees of freedom: 0
		Diagonalized inertia vector:       0.0000000000
		                                   0.0000000000
		                                   0.0000000000
		element: 0 atom: 0 [       CH3] Charge:  0.000000 Anisotropy: 0.000000 Connectivity: 1 (1 )
		element: 1 atom: 1 [       CH2] Charge:  0.000000 Anisotropy: 0.000000 Connectivity: 2 (0 2 )
		element: 2 atom: 2 [       CH2] Charge:  0.000000 Anisotropy: 0.000000 Connectivity: 2 (1 3 )
		element: 3 atom: 3 [       CH2] Charge:  0.000000 Anisotropy: 0.000000 Connectivity: 2 (2 4 )
		element: 4 atom: 4 [       CH2] Charge:  0.000000 Anisotropy: 0.000000 Connectivity: 2 (3 5 )
		element: 5 atom: 5 [       CH2] Charge:  0.000000 Anisotropy: 0.000000 Connectivity: 2 (4 6 )
		element: 6 atom: 6 [       CH2] Charge:  0.000000 Anisotropy: 0.000000 Connectivity: 2 (5 7 )
		element: 7 atom: 7 [       CH2] Charge:  0.000000 Anisotropy: 0.000000 Connectivity: 2 (6 8 )
		element: 8 atom: 8 [       CH3] Charge:  0.000000 Anisotropy: 0.000000 Connectivity: 1 (7 )

		Dipole:           0.0000000000 [D]
		Quadrupole:       0.0000000000       0.0000000000       0.0000000000 [D Angstrom]
		Quadrupole tensor [D Angstrom]
				       0.0000000000       0.0000000000       0.0000000000
				       0.0000000000       0.0000000000       0.0000000000
				       0.0000000000       0.0000000000       0.0000000000

	Starting bead for growth               : 0

	Degrees of freedom                     : 0
	Translational degrees of freedom       : 0
	Rotational degrees of freedom          : 0
	Vibrational degrees of freedom         : 0
	Constraint degrees of freedom          : 0

	Number of atoms                        : 9

	Number of constraint bonds             : 0
	Number of constraint bends             : 0
	Number of constraint inversion bends   : 0
	Number of constraint torsions          : 0
	Number of constraint improper torsions : 0
	Number of constraint improper torsions : 0

	Number of bonds                        : 8
	Number of Urey-Bradleys                : 0
	Number of bends                        : 7
	Number of inversion bends              : 0
	Number of torsions                     : 6
	Number of improper torsions            : 0
	Number of improper torsions            : 0

	Number of bond/bond cross terms        : 0
	Number of bond/bend cross terms        : 0
	Number of bend/bend cross terms        : 0
	Number of stretch/torsion cross terms  : 0
	Number of bend/torsion cross terms     : 0

	Number of charges                      : 0
	Number of bond-dipoles                 : 0

	Number of intra Van der Waals                             : 15
	Number of intra charge-charge Coulomb                     : 0
	Number of intra charge-bonddipole Coulomb                 : 0
	Number of intra bonddipole-bonddipole Coulomb             : 0

	Number of excluded intra charge-charge Coulomb                     : 0
	Number of excluded intra charge-bonddipole Coulomb                 : 0
	Number of excluded intra bonddipole-bonddipole Coulomb             : 0

	Number of cbmc-config moves                               : 0

	Particle Moves:             
		ProbabilityTranslationMove:                  0.000000
			TranslationDirection:      XYZ
		Percentage of random translation moves:            0.000000
		Percentage of rotation moves:                      0.000000
		Percentage of random rotation moves:               0.000000
		Percentage of partial reinsertion moves:           0.000000
		Percentage of reinsertion moves:                   0.000000
		Percentage of reinsertion-in-place moves:          0.000000
		Percentage of reinsertion-in-plane moves:          0.000000
		Percentage of identity-change moves:               0.000000
		Percentage of swap (insert/delete) moves:          0.000000
		Percentage of CF swap lambda moves:                0.000000
		Percentage of CB/CFMC swap lambda moves:           0.000000
		Percentage of Widom insertion moves:               100.000000
		Percentage of CF-Widom insertion moves:            0.000000
		Percentage of Gibbs Widom insertion moves:         0.000000
		Percentage of surface-area moves:                  0.000000
		Percentage of Gibbs particle-transfer moves:       0.000000
		Percentage of Gibbs identity-change moves:         0.000000
		Percentage of CF Gibbs lambda-transfer moves:      0.000000
		Percentage of CB/CFMC Gibbs lambda-transfer moves: 0.000000
		Percentage of exchange frac./int. particle moves:  0.000000
		Percentage of fractional mol. to other box moves:  0.000000
		Percentage of lambda-change moves:                 0.000000
		Percentage of fractional to integer moves:         0.000000

	System Moves:
		Percentage of parallel-tempering moves:            0.000000
		Percentage of hyper-parallel-tempering moves:      0.000000
		Percentage of parallel-mol-fraction moves:         0.000000
			   Component A: 0 B: 1
		Percentage of chiral inversion moves:              0.000000
		Percentage of Hybrid-NVE moves:                    0.000000
		Percentage of Hybrid-NPH moves:                    0.000000
		Percentage of Hybrid-NPHPR moves:                  0.000000
		Percentage of volume-change moves:                 0.000000
		Percentage of box-shape-change moves:              0.000000
		Percentage of Gibbs volume-change moves:           0.000000
		Percentage of framework-change moves:              0.000000
		Percentage of framework-shift moves:               0.000000
		Percentage of reactive MC moves:                   0.000000

	Moves are restricted: No
	No biased sampling used for this component

	Number of Bonds: 8
	--------------------------------------------
	Bond interaction 0: A=0 B=1 Type:HARMONIC_BOND
		HARMONIC_BOND: p_0/k_B=96500.000000 [K/A^2], p_1=1.540000   [A]
	Bond interaction 1: A=1 B=2 Type:HARMONIC_BOND
		HARMONIC_BOND: p_0/k_B=96500.000000 [K/A^2], p_1=1.540000   [A]
	Bond interaction 2: A=2 B=3 Type:HARMONIC_BOND
		HARMONIC_BOND: p_0/k_B=96500.000000 [K/A^2], p_1=1.540000   [A]
	Bond interaction 3: A=3 B=4 Type:HARMONIC_BOND
		HARMONIC_BOND: p_0/k_B=96500.000000 [K/A^2], p_1=1.540000   [A]
	Bond interaction 4: A=4 B=5 Type:HARMONIC_BOND
		HARMONIC_BOND: p_0/k_B=96500.000000 [K/A^2], p_1=1.540000   [A]
	Bond interaction 5: A=5 B=6 Type:HARMONIC_BOND
		HARMONIC_BOND: p_0/k_B=96500.000000 [K/A^2], p_1=1.540000   [A]
	Bond interaction 6: A=6 B=7 Type:HARMONIC_BOND
		HARMONIC_BOND: p_0/k_B=96500.000000 [K/A^2], p_1=1.540000   [A]
	Bond interaction 7: A=7 B=8 Type:HARMONIC_BOND
		HARMONIC_BOND: p_0/k_B=96500.000000 [K/A^2], p_1=1.540000   [A]

	Number of Bends: 7
	--------------------------------------------
	Bend interaction 0: A=0 B=1 C=2 Type:HARMONIC_BEND
		HARMONIC_BEND: p_0/k_B=62500.000000 [K/rad^2], p_1=114.000000 [degrees]
	Bend interaction 1: A=1 B=2 C=3 Type:HARMONIC_BEND
		HARMONIC_BEND: p_0/k_B=62500.000000 [K/rad^2], p_1=114.000000 [degrees]
	Bend interaction 2: A=2 B=3 C=4 Type:HARMONIC_BEND
		HARMONIC_BEND: p_0/k_B=62500.000000 [K/rad^2], p_1=114.000000 [degrees]
	Bend interaction 3: A=3 B=4 C=5 Type:HARMONIC_BEND
		HARMONIC_BEND: p_0/k_B=62500.000000 [K/rad^2], p_1=114.000000 [degrees]
	Bend interaction 4: A=4 B=5 C=6 Type:HARMONIC_BEND
		HARMONIC_BEND: p_0/k_B=62500.000000 [K/rad^2], p_1=114.000000 [degrees]
	Bend interaction 5: A=5 B=6 C=7 Type:HARMONIC_BEND
		HARMONIC_BEND: p_0/k_B=62500.000000 [K/rad^2], p_1=114.000000 [degrees]
	Bend interaction 6: A=6 B=7 C=8 Type:HARMONIC_BEND
		HARMONIC_BEND: p_0/k_B=62500.000000 [K/rad^2], p_1=114.000000 [degrees]

	Number of Torsions: 6
	--------------------------------------------
	Torsions interaction 0: A=0 B=1 C=2 D=3 Type:TRAPPE_DIHEDRAL
		TRAPPE_DIHEDRAL: p_0/k_B=0.000000   [K], p_1/k_B=355.030000 [K], p_2/k_B=-68.190000 [K], p_3/k_B=791.320000 [K]
	Torsions interaction 1: A=1 B=2 C=3 D=4 Type:TRAPPE_DIHEDRAL
		TRAPPE_DIHEDRAL: p_0/k_B=0.000000   [K], p_1/k_B=355.030000 [K], p_2/k_B=-68.190000 [K], p_3/k_B=791.320000 [K]
	Torsions interaction 2: A=2 B=3 C=4 D=5 Type:TRAPPE_DIHEDRAL
		TRAPPE_DIHEDRAL: p_0/k_B=0.000000   [K], p_1/k_B=355.030000 [K], p_2/k_B=-68.190000 [K], p_3/k_B=791.320000 [K]
	Torsions interaction 3: A=3 B=4 C=5 D=6 Type:TRAPPE_DIHEDRAL
		TRAPPE_DIHEDRAL: p_0/k_B=0.000000   [K], p_1/k_B=355.030000 [K], p_2/k_B=-68.190000 [K], p_3/k_B=791.320000 [K]
	Torsions interaction 4: A=4 B=5 C=6 D=7 Type:TRAPPE_DIHEDRAL
		TRAPPE_DIHEDRAL: p_0/k_B=0.000000   [K], p_1/k_B=355.030000 [K], p_2/k_B=-68.190000 [K], p_3/k_B=791.320000 [K]
	Torsions interaction 5: A=5 B=6 C=7 D=8 Type:TRAPPE_DIHEDRAL
		TRAPPE_DIHEDRAL: p_0/k_B=0.000000   [K], p_1/k_B=355.030000 [K], p_2/k_B=-68.190000 [K], p_3/k_B=791.320000 [K]

	number of intra VDW interactions: 15
	--------------------------------------------
	interaction 0: A=0 B=4  scaling factor: 1
	interaction 1: A=0 B=5  scaling factor: 1
	interaction 2: A=0 B=6  scaling factor: 1
	interaction 3: A=0 B=7  scaling factor: 1
	interaction 4: A=0 B=8  scaling factor: 1
	interaction 5: A=1 B=5  scaling factor: 1
	interaction 6: A=1 B=6  scaling factor: 1
	interaction 7: A=1 B=7  scaling factor: 1
	interaction 8: A=1 B=8  scaling factor: 1
	interaction 9: A=2 B=6  scaling factor: 1
	interaction 10: A=2 B=7  scaling factor: 1
	interaction 11: A=2 B=8  scaling factor: 1
	interaction 12: A=3 B=7  scaling factor: 1
	interaction 13: A=3 B=8  scaling factor: 1
	interaction 14: A=4 B=8  scaling factor: 1


	number of identity-config changes: 1
	--------------------------------------------
	nr fixed 1: 0 

	Number of pockets blocked in a unitcell: 0
		Pockets are NOT blocked for this component



System Properties
===========================================================================
Unit cell size: 30.000000 30.000000 30.000000
Cell angles (radians)  alpha: 1.570796 beta: 1.570796 gamma: 1.570796
Cell angles (degrees)  alpha: 90.000000 beta: 90.000000 gamma: 90.000000
Number of unitcells [a]: 1
Number of unitcells [b]: 1
Number of unitcells [c]: 1

RECTANGULAR Boundary conditions: alpha=beta=gamma=90 degrees

Cartesian axis A is collinear with crystallographic axis a
Cartesian axis B is collinear with (axb)xA
Cartesian axis C is collinear with (axb)

lengths of cell vectors:
 30.00000  30.00000  30.00000
cosines of cell angles:
  0.00000   0.00000   0.00000
perpendicular cell widths:
 30.00000  30.00000  30.00000
volume of the cell: 27000.000000000000 (A^3)

Orthogonalization matrix Box
Transforms fractional coordinates abc into orthonormal Cartesian coordinates xyz
Deorthogonalization matrix InverseBox
Transforms orthonormal Cartesian coordinates xyz into fractional coordinates xyz

Box[0]:
	   30.000000000000     0.000000000000     0.000000000000
	    0.000000000000    30.000000000000     0.000000000000
	    0.000000000000     0.000000000000    30.000000000000

Inverse box[0]:
	    0.033333333333    -0.000000000000    -0.000000000000
	    0.000000000000     0.033333333333    -0.000000000000
	    0.000000000000     0.000000000000     0.033333333333


Unitcell box[0]:
	   30.000000000000     0.000000000000     0.000000000000
	    0.000000000000    30.000000000000     0.000000000000
	    0.000000000000     0.000000000000    30.000000000000

Unitcell inverse box[0]:
	    0.033333333333    -0.000000000000    -0.000000000000
	    0.000000000000     0.033333333333    -0.000000000000
	    0.000000000000     0.000000000000     0.033333333333

lengths of cell vectors (inverse box):
  0.03333   0.03333   0.03333
[...]

Component 2 [heptane]
-------------------------------------------------------------
	Block[ 0] 0.00000            [-]
	Block[ 1] 0.00000            [-]
	Block[ 2] 0.00000            [-]
	Block[ 3] 0.00000            [-]
	Block[ 4] 0.00000            [-]
	------------------------------------------------------------------------------
	Average loading absolute                              0.0000000000 +/-       0.0000000000 [-]
	Average loading absolute [molecules/unit cell]        0.0000000000 +/-       0.0000000000 [-]
	Average loading absolute [mol/kg framework]                           nan +/-                nan [-]
	Average loading absolute [milligram/gram framework]                   nan +/-                nan [-]
	Average loading absolute [cm^3 (STP)/gr framework]                    nan +/-                nan [-]
	Average loading absolute [cm^3 (STP)/cm^3 framework]         0.0000000000 +/-       0.0000000000 [-]

	Block[ 0] 0.00000            [-]
	Block[ 1] 0.00000            [-]
	Block[ 2] 0.00000            [-]
	Block[ 3] 0.00000            [-]
	Block[ 4] 0.00000            [-]
	------------------------------------------------------------------------------
	Average loading excess                              0.0000000000 +/-       0.0000000000 [-]
	Average loading excess [molecules/unit cell]        0.0000000000 +/-       0.0000000000 [-]
	Average loading excess [mol/kg framework]                             nan +/-                nan [-]
	Average loading excess [milligram/gram framework]                     nan +/-                nan [-]
	Average loading excess [cm^3 (STP)/gr framework]                      nan +/-                nan [-]
	Average loading excess [cm^3 (STP)/cm^3 framework]           0.0000000000 +/-       0.0000000000 [-]

Component 3 [octane]
-------------------------------------------------------------
	Block[ 0] 0.00000            [-]
	Block[ 1] 0.00000            [-]
	Block[ 2] 0.00000            [-]
	Block[ 3] 0.00000            [-]
	Block[ 4] 0.00000            [-]
	------------------------------------------------------------------------------
	Average loading absolute                              0.0000000000 +/-       0.0000000000 [-]
	Average loading absolute [molecules/unit cell]        0.0000000000 +/-       0.0000000000 [-]
	Average loading absolute [mol/kg framework]                           nan +/-                nan [-]
	Average loading absolute [milligram/gram framework]                   nan +/-                nan [-]
	Average loading absolute [cm^3 (STP)/gr framework]                    nan +/-                nan [-]
	Average loading absolute [cm^3 (STP)/cm^3 framework]         0.0000000000 +/-       0.0000000000 [-]

	Block[ 0] 0.00000            [-]
	Block[ 1] 0.00000            [-]
	Block[ 2] 0.00000            [-]
	Block[ 3] 0.00000            [-]
	Block[ 4] 0.00000            [-]
	------------------------------------------------------------------------------
	Average loading excess                              0.0000000000 +/-       0.0000000000 [-]
	Average loading excess [molecules/unit cell]        0.0000000000 +/-       0.0000000000 [-]
	Average loading excess [mol/kg framework]                             nan +/-                nan [-]
	Average loading excess [milligram/gram framework]                     nan +/-                nan [-]
	Average loading excess [cm^3 (STP)/gr framework]                      nan +/-                nan [-]
	Average loading excess [cm^3 (STP)/cm^3 framework]           0.0000000000 +/-       0.0000000000 [-]

Component 4 [nonane]
-------------------------------------------------------------
	Block[ 0] 0.00000            [-]
	Block[ 1] 0.00000            [-]
	Block[ 2] 0.00000            [-]
	Block[ 3] 0.00000            [-]
	Block[ 4] 0.00000            [-]
	------------------------------------------------------------------------------
	Average loading absolute                              0.0000000000 +/-       0.0000000000 [-]
	Average loading absolute [molecules/unit cell]        0.0000000000 +/-       0.0000000000 [-]
	Average loading absolute [mol/kg framework]                           nan +/-                nan [-]
	Average loading absolute [milligram/gram framework]                   nan +/-                nan [-]
	Average loading absolute [cm^3 (STP)/gr framework]                    nan +/-                nan [-]
	Average loading absolute [cm^3 (STP)/cm^3 framework]         0.0000000000 +/-       0.0000000000 [-]

	Block[ 0] 0.00000            [-]
	Block[ 1] 0.00000            [-]
	Block[ 2] 0.00000            [-]
	Block[ 3] 0.00000            [-]
	Block[ 4] 0.00000            [-]
	------------------------------------------------------------------------------
	Average loading excess                              0.0000000000 +/-       0.0000000000 [-]
	Average loading excess [molecules/unit cell]        0.0000000000 +/-       0.0000000000 [-]
	Average loading excess [mol/kg framework]                             nan +/-                nan [-]
	Average loading excess [milligram/gram framework]                     nan +/-                nan [-]
	Average loading excess [cm^3 (STP)/gr framework]                      nan +/-                nan [-]
	Average loading excess [cm^3 (STP)/cm^3 framework]           0.0000000000 +/-       0.0000000000 [-]


Average Widom Rosenbluth factor:
================================
	Block[ 0] 0.0640004 [-]
	Block[ 1] 0.0639388 [-]
	Block[ 2] 0.063764 [-]
	Block[ 3] 0.0640417 [-]
	Block[ 4] 0.0640413 [-]
	------------------------------------------------------------------------------
	[pentane] Average Widom Rosenbluth-weight:   0.0639572 +/- 0.000144 [-]
	Block[ 0] 0.0164055 [-]
	Block[ 1] 0.0164058 [-]
	Block[ 2] 0.0164392 [-]
	Block[ 3] 0.0164197 [-]
	Block[ 4] 0.0164413 [-]
	------------------------------------------------------------------------------
	[hexane] Average Widom Rosenbluth-weight:   0.0164223 +/- 0.000022 [-]
	Block[ 0] 0.00423327 [-]
	Block[ 1] 0.0042692 [-]
	Block[ 2] 0.00424549 [-]
	Block[ 3] 0.00425135 [-]
	Block[ 4] 0.00425788 [-]
	------------------------------------------------------------------------------
	[heptane] Average Widom Rosenbluth-weight:   0.00425144 +/- 0.000017 [-]
	Block[ 0] 0.00111192 [-]
	Block[ 1] 0.00111139 [-]
	Block[ 2] 0.00110769 [-]
	Block[ 3] 0.00110633 [-]
	Block[ 4] 0.00110647 [-]
	------------------------------------------------------------------------------
	[octane] Average Widom Rosenbluth-weight:   0.00110876 +/- 0.000003 [-]
	Block[ 0] 0.000288359 [-]
	Block[ 1] 0.000287585 [-]
	Block[ 2] 0.000291003 [-]
	Block[ 3] 0.000290553 [-]
	Block[ 4] 0.00029062 [-]
	------------------------------------------------------------------------------
	[nonane] Average Widom Rosenbluth-weight:   0.000289624 +/- 0.000002 [-]

Average Widom chemical potential:
=================================
	Block[ 0] -4271.56 [-]
	Block[ 1] -4271.01 [-]
	Block[ 2] -4269.44 [-]
	Block[ 3] -4271.93 [-]
	Block[ 4] -4271.93 [-]
	------------------------------------------------------------------------------
	[pentane] Average chemical potential:   -4271.17 +/- 1.290084 [K]
	Block[ 0] -3491.55 [-]
	Block[ 1] -3491.56 [-]
	Block[ 2] -3492.73 [-]
	Block[ 3] -3492.05 [-]
	Block[ 4] -3492.8 [-]
	------------------------------------------------------------------------------
	[hexane] Average chemical potential:   -3492.14 +/- 0.751986 [K]
	Block[ 0] -2715.34 [-]
	Block[ 1] -2720.18 [-]
	Block[ 2] -2716.99 [-]
	Block[ 3] -2717.78 [-]
	Block[ 4] -2718.66 [-]
	------------------------------------------------------------------------------
	[heptane] Average chemical potential:   -2717.79 +/- 2.249168 [K]
	Block[ 0] -1949.3 [-]
	Block[ 1] -1949.03 [-]
	Block[ 2] -1947.12 [-]
	Block[ 3] -1946.42 [-]
	Block[ 4] -1946.49 [-]
	------------------------------------------------------------------------------
	[octane] Average chemical potential:   -1947.67 +/- 1.732490 [K]
	Block[ 0] -1175.96 [-]
	Block[ 1] -1174.42 [-]
	Block[ 2] -1181.19 [-]
	Block[ 3] -1180.31 [-]
	Block[ 4] -1180.44 [-]
	------------------------------------------------------------------------------
	[nonane] Average chemical potential:   -1178.46 +/- 3.792643 [K]

Average Widom Ideal-gas contribution:
=====================================
	Block[ 0] -5846.66 [-]
	Block[ 1] -5846.66 [-]
	Block[ 2] -5846.66 [-]
	Block[ 3] -5846.66 [-]
	Block[ 4] -5846.66 [-]
	------------------------------------------------------------------------------
	[pentane] Average Widom Ideal-gas chemical potential:   -5846.66 +/- 0.000000 [-]
	Block[ 0] -5846.66 [-]
	Block[ 1] -5846.66 [-]
	Block[ 2] -5846.66 [-]
	Block[ 3] -5846.66 [-]
	Block[ 4] -5846.66 [-]
	------------------------------------------------------------------------------
	[hexane] Average Widom Ideal-gas chemical potential:   -5846.66 +/- 0.000000 [-]
	Block[ 0] -5846.66 [-]
	Block[ 1] -5846.66 [-]
	Block[ 2] -5846.66 [-]
	Block[ 3] -5846.66 [-]
	Block[ 4] -5846.66 [-]
	------------------------------------------------------------------------------
	[heptane] Average Widom Ideal-gas chemical potential:   -5846.66 +/- 0.000000 [-]
	Block[ 0] -5846.66 [-]
	Block[ 1] -5846.66 [-]
	Block[ 2] -5846.66 [-]
	Block[ 3] -5846.66 [-]
	Block[ 4] -5846.66 [-]
	------------------------------------------------------------------------------
	[octane] Average Widom Ideal-gas chemical potential:   -5846.66 +/- 0.000000 [-]
	Block[ 0] -5846.66 [-]
	Block[ 1] -5846.66 [-]
	Block[ 2] -5846.66 [-]
	Block[ 3] -5846.66 [-]
	Block[ 4] -5846.66 [-]
	------------------------------------------------------------------------------
	[nonane] Average Widom Ideal-gas chemical potential:   -5846.66 +/- 0.000000 [-]

Average Widom excess contribution:
==================================
	Block[ 0] 1575.1 [-]
	Block[ 1] 1575.65 [-]
	Block[ 2] 1577.22 [-]
	Block[ 3] 1574.73 [-]
	Block[ 4] 1574.74 [-]
	------------------------------------------------------------------------------
	[pentane] Average Widom excess chemical potential:   1575.49 +/- 1.290084 [-]
	Block[ 0] 2355.11 [-]
	Block[ 1] 2355.1 [-]
	Block[ 2] 2353.93 [-]
	Block[ 3] 2354.62 [-]
	Block[ 4] 2353.86 [-]
	------------------------------------------------------------------------------
	[hexane] Average Widom excess chemical potential:   2354.52 +/- 0.751986 [-]
	Block[ 0] 3131.32 [-]
	Block[ 1] 3126.48 [-]
	Block[ 2] 3129.67 [-]
	Block[ 3] 3128.88 [-]
	Block[ 4] 3128 [-]
	------------------------------------------------------------------------------
	[heptane] Average Widom excess chemical potential:   3128.87 +/- 2.249168 [-]
	Block[ 0] 3897.36 [-]
	Block[ 1] 3897.63 [-]
	Block[ 2] 3899.54 [-]
	Block[ 3] 3900.25 [-]
	Block[ 4] 3900.17 [-]
	------------------------------------------------------------------------------
	[octane] Average Widom excess chemical potential:   3898.99 +/- 1.732490 [-]
	Block[ 0] 4670.7 [-]
	Block[ 1] 4672.24 [-]
	Block[ 2] 4665.47 [-]
	Block[ 3] 4666.36 [-]
	Block[ 4] 4666.23 [-]
	------------------------------------------------------------------------------
	[nonane] Average Widom excess chemical potential:   4668.2 +/- 3.792643 [-]

Average Gibbs Widom Rosenbluth factor:
======================================
	Block[ 0] 0 [-]
	Block[ 1] 0 [-]
	Block[ 2] 0 [-]
	Block[ 3] 0 [-]
	Block[ 4] 0 [-]
	------------------------------------------------------------------------------
	[pentane] Average Gibbs Widom Rosenbluth-weight:   0 +/- 0.000000 [-]
	Block[ 0] 0 [-]
	Block[ 1] 0 [-]
	Block[ 2] 0 [-]
	Block[ 3] 0 [-]
	Block[ 4] 0 [-]
	------------------------------------------------------------------------------
	[hexane] Average Gibbs Widom Rosenbluth-weight:   0 +/- 0.000000 [-]
	Block[ 0] 0 [-]
	Block[ 1] 0 [-]
	Block[ 2] 0 [-]
	Block[ 3] 0 [-]
	Block[ 4] 0 [-]
	------------------------------------------------------------------------------
	[heptane] Average Gibbs Widom Rosenbluth-weight:   0 +/- 0.000000 [-]
	Block[ 0] 0 [-]
	Block[ 1] 0 [-]
	Block[ 2] 0 [-]
	Block[ 3] 0 [-]
	Block[ 4] 0 [-]
	------------------------------------------------------------------------------
	[octane] Average Gibbs Widom Rosenbluth-weight:   0 +/- 0.000000 [-]
	Block[ 0] 0 [-]
	Block[ 1] 0 [-]
	Block[ 2] 0 [-]
	Block[ 3] 0 [-]
	Block[ 4] 0 [-]
	------------------------------------------------------------------------------
	[nonane] Average Gibbs Widom Rosenbluth-weight:   0 +/- 0.000000 [-]

Average Gibbs Widom chemical potential:
=======================================
	Block[ 0] 0 [-]
	Block[ 1] 0 [-]
	Block[ 2] 0 [-]
	Block[ 3] 0 [-]
	Block[ 4] 0 [-]
	------------------------------------------------------------------------------
	[pentane] Average Gibbs chemical potential:   0 +/- 0.000000 [K]
	Block[ 0] 0 [-]
	Block[ 1] 0 [-]
	Block[ 2] 0 [-]
	Block[ 3] 0 [-]
	Block[ 4] 0 [-]
	------------------------------------------------------------------------------
	[hexane] Average Gibbs chemical potential:   0 +/- 0.000000 [K]
	Block[ 0] 0 [-]
	Block[ 1] 0 [-]
	Block[ 2] 0 [-]
	Block[ 3] 0 [-]
	Block[ 4] 0 [-]
	------------------------------------------------------------------------------
	[heptane] Average Gibbs chemical potential:   0 +/- 0.000000 [K]
	Block[ 0] 0 [-]
	Block[ 1] 0 [-]
	Block[ 2] 0 [-]
	Block[ 3] 0 [-]
	Block[ 4] 0 [-]
	------------------------------------------------------------------------------
	[octane] Average Gibbs chemical potential:   0 +/- 0.000000 [K]
	Block[ 0] 0 [-]
	Block[ 1] 0 [-]
	Block[ 2] 0 [-]
	Block[ 3] 0 [-]
	Block[ 4] 0 [-]
	------------------------------------------------------------------------------
	[nonane] Average Gibbs chemical potential:   0 +/- 0.000000 [K]

Average Gibbs Widom Ideal-gas contribution:
===========================================
	Block[ 0] 0 [-]
	Block[ 1] 0 [-]
	Block[ 2] 0 [-]
	Block[ 3] 0 [-]
	Block[ 4] 0 [-]
	------------------------------------------------------------------------------
	[pentane] Average Gibbs Ideal-gas chemical potential:   0 +/- 0.000000 [-]
	Block[ 0] 0 [-]
	Block[ 1] 0 [-]
	Block[ 2] 0 [-]
	Block[ 3] 0 [-]
	Block[ 4] 0 [-]
	------------------------------------------------------------------------------
	[hexane] Average Gibbs Ideal-gas chemical potential:   0 +/- 0.000000 [-]
	Block[ 0] 0 [-]
	Block[ 1] 0 [-]
	Block[ 2] 0 [-]
	Block[ 3] 0 [-]
	Block[ 4] 0 [-]
	------------------------------------------------------------------------------
	[heptane] Average Gibbs Ideal-gas chemical potential:   0 +/- 0.000000 [-]
	Block[ 0] 0 [-]
	Block[ 1] 0 [-]
	Block[ 2] 0 [-]
	Block[ 3] 0 [-]
	Block[ 4] 0 [-]
	------------------------------------------------------------------------------
	[octane] Average Gibbs Ideal-gas chemical potential:   0 +/- 0.000000 [-]
	Block[ 0] 0 [-]
	Block[ 1] 0 [-]
	Block[ 2] 0 [-]
	Block[ 3] 0 [-]
	Block[ 4] 0 [-]
	------------------------------------------------------------------------------
	[nonane] Average Gibbs Ideal-gas chemical potential:   0 +/- 0.000000 [-]

Average Gibbs Widom excess contribution:
===========================================
	Block[ 0] 0 [-]
	Block[ 1] 0 [-]
	Block[ 2] 0 [-]
	Block[ 3] 0 [-]
	Block[ 4] 0 [-]
	------------------------------------------------------------------------------
	[pentane] Average Gibbs excess chemical potential:   0 +/- 0.000000 [-]
	Block[ 0] 0 [-]
	Block[ 1] 0 [-]
	Block[ 2] 0 [-]
	Block[ 3] 0 [-]
	Block[ 4] 0 [-]
	------------------------------------------------------------------------------
	[hexane] Average Gibbs excess chemical potential:   0 +/- 0.000000 [-]
	Block[ 0] 0 [-]
	Block[ 1] 0 [-]
	Block[ 2] 0 [-]
	Block[ 3] 0 [-]
	Block[ 4] 0 [-]
	------------------------------------------------------------------------------
	[heptane] Average Gibbs excess chemical potential:   0 +/- 0.000000 [-]
	Block[ 0] 0 [-]
	Block[ 1] 0 [-]
	Block[ 2] 0 [-]
	Block[ 3] 0 [-]
	Block[ 4] 0 [-]
	------------------------------------------------------------------------------
	[octane] Average Gibbs excess chemical potential:   0 +/- 0.000000 [-]
	Block[ 0] 0 [-]
	Block[ 1] 0 [-]
	Block[ 2] 0 [-]
	Block[ 3] 0 [-]
	Block[ 4] 0 [-]
	------------------------------------------------------------------------------
	[nonane] Average Gibbs excess chemical potential:   0 +/- 0.000000 [-]

Average Henry coefficient:
==========================
	Block[ 0] inf [mol/kg/Pa]
	Block[ 1] inf [mol/kg/Pa]
	Block[ 2] inf [mol/kg/Pa]
	Block[ 3] inf [mol/kg/Pa]
	Block[ 4] inf [mol/kg/Pa]
	------------------------------------------------------------------------------
	[pentane] Average Henry coefficient:  inf +/- nan [mol/kg/Pa]
	Block[ 0] inf [mol/kg/Pa]
	Block[ 1] inf [mol/kg/Pa]
	Block[ 2] inf [mol/kg/Pa]
	Block[ 3] inf [mol/kg/Pa]
	Block[ 4] inf [mol/kg/Pa]
	------------------------------------------------------------------------------
	[hexane] Average Henry coefficient:  inf +/- nan [mol/kg/Pa]
	Block[ 0] inf [mol/kg/Pa]
	Block[ 1] inf [mol/kg/Pa]
	Block[ 2] inf [mol/kg/Pa]
	Block[ 3] inf [mol/kg/Pa]
	Block[ 4] inf [mol/kg/Pa]
	------------------------------------------------------------------------------
	[heptane] Average Henry coefficient:  inf +/- nan [mol/kg/Pa]
	Block[ 0] inf [mol/kg/Pa]
	Block[ 1] inf [mol/kg/Pa]
	Block[ 2] inf [mol/kg/Pa]
	Block[ 3] inf [mol/kg/Pa]
	Block[ 4] inf [mol/kg/Pa]
	------------------------------------------------------------------------------
	[octane] Average Henry coefficient:  inf +/- nan [mol/kg/Pa]
	Block[ 0] inf [mol/kg/Pa]
	Block[ 1] inf [mol/kg/Pa]
	Block[ 2] inf [mol/kg/Pa]
	Block[ 3] inf [mol/kg/Pa]
	Block[ 4] inf [mol/kg/Pa]
	------------------------------------------------------------------------------
	[nonane] Average Henry coefficient:  inf +/- nan [mol/kg/Pa]

Average adsorption energy <U_gh>_1-<U_h>_0 obtained from Widom-insertion:
(Note: the total heat of adsorption is dH=<U_gh>_1-<U_h>_0 - <U_g> - RT)
=========================================================================
	Block[ 0] 2978.4140033279    [K]
	Block[ 1] 2975.5802515026    [K]
	Block[ 2] 2982.1987819761    [K]
	Block[ 3] 2978.9434302235    [K]
	Block[ 4] 2984.5928213703    [K]
	------------------------------------------------------------------------------
	[pentane] Average  <U_gh>_1-<U_h>_0:     2979.9458576801 +/-       4.3486682511 [K]       (     24.7766552942 +/-       0.0361568496 kJ/mol)
	Block[ 0] 3987.1599117083    [K]
	Block[ 1] 3991.4727504480    [K]
	Block[ 2] 3989.0219854459    [K]
	Block[ 3] 3989.3907807245    [K]
	Block[ 4] 3991.5389580197    [K]
	------------------------------------------------------------------------------
	[hexane] Average  <U_gh>_1-<U_h>_0:     3989.7168772693 +/-       2.2832794383 [K]       (     33.1723610128 +/-       0.0189842468 kJ/mol)
	Block[ 0] 4991.3781236871    [K]
	Block[ 1] 4989.8941937501    [K]
	Block[ 2] 4999.6628656687    [K]
	Block[ 3] 4995.5759390458    [K]
	Block[ 4] 4995.5334309063    [K]
	------------------------------------------------------------------------------
	[heptane] Average  <U_gh>_1-<U_h>_0:     4994.4089106116 +/-       4.8001078892 [K]       (     41.5258376784 +/-       0.0399103287 kJ/mol)
	Block[ 0] 6010.7852449063    [K]
	Block[ 1] 5990.1665788006    [K]
	Block[ 2] 6012.9529409157    [K]
	Block[ 3] 5994.7765372665    [K]
	Block[ 4] 5996.7460798546    [K]
	------------------------------------------------------------------------------
	[octane] Average  <U_gh>_1-<U_h>_0:     6001.0854763487 +/-      12.6113778262 [K]       (     49.8958146690 +/-       0.1048568585 kJ/mol)
	Block[ 0] 6997.4700139637    [K]
	Block[ 1] 6990.4639193325    [K]
	Block[ 2] 6993.4056336921    [K]
	Block[ 3] 7011.1101382006    [K]
	Block[ 4] 6991.4983592122    [K]
	------------------------------------------------------------------------------
	[nonane] Average  <U_gh>_1-<U_h>_0:     6996.7896128802 +/-      10.4792340004 [K]       (     58.1745617819 +/-       0.0871292235 kJ/mol)

Simulation finished,  0 warnings


Tue May 18 15:54:09 2021
Simulation finished on Tuesday, May 18.
The end time was 03:54 PM.

