Compiler and run-time data
===========================================================================
RASPA 2.0.45
Compiled as a 64-bits application
Compiler: gcc Apple LLVM 12.0.5 (clang-1205.0.22.9)
Compile Date = May 18 2021, Compile Time = 12:54:12

Tue May 18 14:30:36 2021
Simulation started on Tuesday, May 18.
The start time was 02:30 PM.

Cpu data:    x86_64
Cpu Model:   MacPro7,1
Host name:   MacPro.local
OS release:  20.4.0
OS type:     Darwin
OS version:  20E232


Simulation
===========================================================================
Dimensions: 3
Random number seed: 1621341036
RASPA directory set to: /Users/dubbelda/RASPA/simulations/
String appended to output-files: 
Number of cycles: 5000000
Number of initializing cycles: 5000
Number of equilibration cycles: 10000
Print every: 10000
Rectangular boundary condition applied
Timestep: 0.000500
Initialization Ensemble: NVT (constant number of particles N, constant volume V, constant average temperature T)
Production run ensemble: NVT (constant number of particles N, constant volume V, constant average temperature T)
	Degrees of freedom:                        480
	Translational Degrees of freedom:          480
	Rotational Degrees of freedom:             0
	Degrees of freedom Framework:              0


Mutual consistent basic set of units:
======================================
Unit of temperature: Kelvin
Unit of length:      1e-10 [m]
Unit of time:        1e-12 [s]
Unit of mass:        1.66054e-27 [kg]
Unit of charge:      1.60218e-19 [C/particle]

Derived units and their conversion factors:
===========================================
Unit of energy:              1.66054e-23 [J]
Unit of force:               1.66054e-13 [N]
Unit of pressure:            1.66054e+07 [Pa]
Unit of velocity:            100 [m/s]
Unit of acceleration:        1e-08 [m^2/s]
Unit of diffusion:           1e-08 [m^2/s]
Unit of dipole moment:       1.60218e-29 [C.m]
Unit of electric potential:  0.000103643 [V]
Unit of electric field:      1.03643e+06 [V]
Unit of polarizability:      1.54587e-35 [-]
Unit of Coulomb potential:   167101.0800066561  [K]
Unit of dielectric constant: 0.0000154587       [s^2 C^2/(kg m^3)]
Unit of wave vectors:        5.3088374589       [cm^1]
Boltzmann constant:          0.8314464919       [-]

Internal conversion factors:
===========================================
Energy to Kelvin:                                    1.2027242847
FH correction factor                                 2.0211930949
Heat capacity conversion factor:                    10.0000088723
From Debye to internal units:                        4.8032067991
Isothermal compressibility conversion factor:        0.0000000602

Energy conversion factors:
===========================================
From mdyne/A to kcal/mol/A^2:           143.933
From mdyne/A to kj/mol/A^2:             602.214
From mdyne/A to K/A^2:                  72429.7
From mdyne A/rad^2 to kcal/mol/deg^2:   0.0438444


Properties computed
===========================================================================
Movies: no
Radial Distribution Function: no
Number of molecules GCMC histogram: no
Histogram of the molecule positions: no
Free energy profiles: no
Pore Size Distribution Function: no
End-to-end distance: no
Histogram of the energy of the system: no
Compute thermodynamic factors: no
Framework spacing histograms: no
Residence times histograms: no
Distance histograms: no
Bend Angle histograms: no
Dihedral angle histograms: no
Angle between planes histograms: no
Molecule properties: yes
	Molecular properties are written to file every 5000 cycles
	Number of elements of the bond-distance histogram: 1000
	Number of elements of the bend-angle histogram: 1000
	Number of elements of the dihedral histogram: 1000
	Range of the bond-distance histogram: 4.000000
	Range of the bend-angle histogram: 180.000000
	Range of the dihedral histogram: 360.000000
Infra-red spectra: no
Mean-squared displacement using modified order-N algorithm: no
Velocity-autocorrelation function modified order-N algorithm: no
Rotational velocity-autocorrelation function modified order-N algorithm: no
Molecular orientation-autocorrelation function modified order-N algorithm: no
Bond orientation-autocorrelation function modified order-N algorithm: no
Mean-squared displacement (conventional algorithm): no
Velocity-autocorrelation function (conventional algorithm): no
3D density grid for adsorbates: no
Compute cation an/or adsorption sites: no
dcTST snapshots: no
Compute pressure and stress: no


VTK
===========================================================================
VTK fractional-range position framework atoms: [-0.001000,1.001000] [-0.001000,1.001000] [-0.001000,1.001000]
VTK fractional-range position framework bonds: [-0.151000,1.151000] [-0.151000,1.151000] [-0.151000,1.151000]
VTK fractional-range com-position adsorbate molecules: [-0.101000,1.101000] [-0.101000,1.101000] [-0.101000,1.101000]
VTK fractional-range com-position cation molecules: [-0.101000,1.101000] [-0.101000,1.101000] [-0.101000,1.101000]
	3D free energy grid made for the full simulation-cell


Thermo/Baro-stat NHC parameters
===========================================================================
External temperature: 298 [K]
Beta: 0.00403598 [energy unit]
External Pressure: 0 [Pa]


Thermostat chain-length: 3
Timescale parameter for thermostat: 0.150000 [ps]
Barostat chain-length:   3
Timescale parameter for barostat:   0.150000 [ps]

Number of Yoshida-Suzuki decomposition steps: 5
Number of respa steps: 5


Method and settings for electrostatics
===============================================================================
Dielectric constant of the medium : 1.000000
Charge from charge-equilibration: no
Ewald summation is used (exact solution of a periodic system)
Relative precision                : 1e-06
Alpha convergence parameter       : 0.265058
kvec (x,y,z)                      : 7 7 7


CFC-RXMC parameters
===========================================================================
Number of reactions: 0


Rattle parameters
===========================================================================
Distance constraint type: r^2-r^2_0
Bend angle constraint type: theta-theta_0
Dihedral angle constraint type: phi-phi_0
Inversion-bend angle constraint type: chi-chi_0
Out-of-plane distance constraint type: r-r_0


Spectra parameters
===========================================================================
Compute normal modes: no


Minimization parameters
===========================================================================
Generalized coordinates are: Cartesian center-of-mass, elements of the orientational matrix p1,p2,p3 and strain
Potential derivatives are evaluated: analytically
Translation of the system is removed from the generalized Hessian: no
Rotation of the system is removed from the generalized Hessian: no
Maximum step-length: 0.3
Convergence factor: 1
Maximum number of minimization steps: 10000
Use gradients in the line-minimizations: yes
RMS gradient tolerance: 1e-06
Maximum gradient tolerance: 1e-06

Distance constraints: 0
Angle constraints: 0
Dihedral constraints: 0

Improper dihedral constraints: 0

Inversion-bend constraints: 0

Out-of-plane constraints: 0

Harmonic distance constraints: 0
Harmonic angle constraints: 0
Harmonic dihedral constraints: 0

Dihedral mid-point measurements: 0

All framework atoms are fixed

Fixed adsorbate atoms:  
Fixed adsorbate groups (center-of-mass):  
Fixed adsorbate groups (orientation):  

Fixed cation atoms:  
Fixed cation groups (center-of-mass):  
Fixed cation groups (orientation):  


dcTST parameters
===========================================================================
Free energy profiles computed: no
Free energy profiles written every 5000 cycles
Free energy mapping: mapped to a,b,c-coordinates
BarrierPosition:       0.0000000000       0.0000000000       0.0000000000
BarrierNormal:         0.0000000000       0.0000000000       0.0000000000
Start with a molecule on top of the barrier: no
Maximum distance to barrier (e.g. distance to minumum free energy):       0.0000000000 [A]
Maximum trajectory time:      10.0000000000 [ps]
Each configuration is used with 5 different initial velocities


Cbmc parameters
===========================================================================
Biasing method: using only the VDW part
Number of trial positions:                                       10
Number of trial positions (reinsertion):                         10
Number of trial positions (partial reinsertion):                 10
Number of trial positions (identity-change):                     10
Number of trial positions (Gibbs particle transfer):             10
Number of trial positions (insertion/deletion):                  10
Number of trial positions (Widom insertion):                     10
Number of trial positions coupled Torsion-selection:             100
Number of trial positions first bead:                            10
Number of trial positions first bead (reinsertion):              10
Number of trial positions first bead (partial reinsertion):      10
Number of trial positions first bead (identity-change):          10
Number of trial positions first bead (Gibbs particle transfer):  10
Number of trial positions first bead (insertion/deletion):       10
Number of trial positions first bead (Widom insertion):          10
Number of trial moves per open bead:                             150
Target acceptance ratio small-mc scheme:                         0.400000
Energy overlap criteria:                                         1e+07
Minimal Rosenbluth factor:                                       1e-150


Pseudo atoms: 6
===========================================================================
Pseudo Atom[   0] Name UNIT     Oxidation:          Element: H    pdb-name: H    Scat. Types:   1   1 Mass=1.000000000  B-factor:0.000   
                 Charge=1.000000000          Polarization=0.000000000  [A^3] (considered a charged atom and no polarization)  Interactions: yes
                 Anisotropic factor:    0.000 [-] (Absolute), Radius:    1.000 [A], Framework-atom:  no
Pseudo Atom[   1] Name CH4      Oxidation: +0       Element: C    pdb-name: C    Scat. Types:   7   6 Mass=16.042460000 B-factor:1.000   
                 Charge=0.000000000          Polarization=0.000000000  [A^3] (considered a chargeless atom and no polarization)  Interactions: yes
                 Anisotropic factor:    0.000 [-] (Relative), Radius:    1.000 [A], Framework-atom:  no
Pseudo Atom[   2] Name CH3      Oxidation: +0       Element: C    pdb-name: C    Scat. Types:   7   6 Mass=15.034520000 B-factor:1.000   
                 Charge=0.000000000          Polarization=0.000000000  [A^3] (considered a chargeless atom and no polarization)  Interactions: yes
                 Anisotropic factor:    0.000 [-] (Relative), Radius:    1.000 [A], Framework-atom:  no
Pseudo Atom[   3] Name CH2      Oxidation: +0       Element: C    pdb-name: C    Scat. Types:   7   6 Mass=14.026580000 B-factor:1.000   
                 Charge=0.000000000          Polarization=0.000000000  [A^3] (considered a chargeless atom and no polarization)  Interactions: yes
                 Anisotropic factor:    0.000 [-] (Relative), Radius:    1.000 [A], Framework-atom:  no
Pseudo Atom[   4] Name CH       Oxidation: +0       Element: C    pdb-name: C    Scat. Types:   7   6 Mass=13.018640000 B-factor:1.000   
                 Charge=0.000000000          Polarization=0.000000000  [A^3] (considered a chargeless atom and no polarization)  Interactions: yes
                 Anisotropic factor:    0.000 [-] (Relative), Radius:    1.000 [A], Framework-atom:  no
Pseudo Atom[   5] Name C        Oxidation: +0       Element: C    pdb-name: C    Scat. Types:   7   6 Mass=12.000000000 B-factor:1.000   
                 Charge=0.000000000          Polarization=0.000000000  [A^3] (considered a chargeless atom and no polarization)  Interactions: yes
                 Anisotropic factor:    0.000 [-] (Relative), Radius:    1.000 [A], Framework-atom:  no


Forcefield: Local
===========================================================================
Minimal distance: 1
CutOff VDW : 12.000000 (144.000000)
CutOff VDW switching on: 10.800000 (116.640000)
CutOff charge-charge : 12.000000 (144.000000)
CutOff charge-charge switching on: 7.800000 (60.840000)
CutOff charge-bonddipole : 12.000000 (144.000000)
CutOff charge-bondipole switching on: 8.400000 (70.560000)
CutOff bonddipole-bonddipole : 12.000000 (144.000000)
CutOff bonddipole-bondipole switching on: 9.000000 (81.000000)
Polarization is neglected
All potentials are shifted to zero at the Cutoff

General mixing rule: Lorentz-Berthelot mixing rules are used FIRST for cross terms
0 cross terms are overwritten using the individual mixing rules from the file 'force_field_mixing_rules.def'
and then 0 terms are overwritten using the specific interactions from the file 'force_field.def'

The force field and all the interactions:
    CH4 -     CH4 [LENNARD_JONES] p_0/k_B: 158.50000 [K], p_1: 3.72000 [A], shift/k_B:  -0.56217796 [K], tailcorrection: no
    CH4 -     CH3 [LENNARD_JONES] p_0/k_B: 130.83577 [K], p_1: 3.74000 [A], shift/k_B:  -0.47921501 [K], tailcorrection: no
    CH4 -     CH2 [LENNARD_JONES] p_0/k_B:  94.21253 [K], p_1: 3.84000 [A], shift/k_B:  -0.40420524 [K], tailcorrection: no
    CH4 -      CH [LENNARD_JONES] p_0/k_B:  51.90857 [K], p_1: 4.19500 [A], shift/k_B:  -0.37827707 [K], tailcorrection: no
    CH4 -       C [LENNARD_JONES] p_0/k_B:  11.26055 [K], p_1: 5.05000 [A], shift/k_B:  -0.24880626 [K], tailcorrection: no
    CH3 -     CH3 [LENNARD_JONES] p_0/k_B: 108.00000 [K], p_1: 3.76000 [A], shift/k_B:  -0.40842485 [K], tailcorrection: no
    CH3 -     CH2 [LENNARD_JONES] p_0/k_B:  77.76889 [K], p_1: 3.86000 [A], shift/k_B:  -0.34420794 [K], tailcorrection: no
    CH3 -      CH [LENNARD_JONES] p_0/k_B:  42.84857 [K], p_1: 4.21500 [A], shift/k_B:  -0.32127575 [K], tailcorrection: no
    CH3 -       C [LENNARD_JONES] p_0/k_B:   9.29516 [K], p_1: 5.07000 [A], shift/k_B:  -0.21028090 [K], tailcorrection: no
    CH2 -     CH2 [LENNARD_JONES] p_0/k_B:  56.00000 [K], p_1: 3.96000 [A], shift/k_B:  -0.28891522 [K], tailcorrection: no
    CH2 -      CH [LENNARD_JONES] p_0/k_B:  30.85450 [K], p_1: 4.31500 [A], shift/k_B:  -0.26621710 [K], tailcorrection: no
    CH2 -       C [LENNARD_JONES] p_0/k_B:   6.69328 [K], p_1: 5.17000 [A], shift/k_B:  -0.17012512 [K], tailcorrection: no
     CH -      CH [LENNARD_JONES] p_0/k_B:  17.00000 [K], p_1: 4.67000 [A], shift/k_B:  -0.23540268 [K], tailcorrection: no
     CH -       C [LENNARD_JONES] p_0/k_B:   3.68782 [K], p_1: 5.52500 [A], shift/k_B:  -0.13918063 [K], tailcorrection: no
      C -       C [LENNARD_JONES] p_0/k_B:   0.80000 [K], p_1: 6.38000 [A], shift/k_B:  -0.07064236 [K], tailcorrection: no


MoleculeDefinitions:
===========================================================================
Component 0 [2-methylbutane] (Adsorbate molecule)

	MoleculeDefinitions: Local
	Component contains no atoms with charge
	Component contains no atoms with point dipoles (polarization)
	Component has a net charge of 0.000000

	Ideal chain Rosenbluth weight: 1
	Ideal chain total energy: 0.000000

	Critical temparure [K]: 460.350000
	Critical pressure [Pa]: 3395700.000000
	Acentric factor [-]: 0.229600

	RXMC partition factor ln(q/V) [ln(A^(-3))]:       0.0000000000

	Vapour=stable, Liquid=metastable

	MolFraction:           1.0000000000 [-]
	Compressibility:       0.0000000000 [-]

	Density of the bulk fluid phase:       0.0000000000 [kg/m^3]


	Amount of excess molecules:       0.0000000000 [-]

	Conversion factor molecules/unit cell -> mol/kg:                inf [-]
	Conversion factor molecules/unit cell -> mg/g:                inf [-]
	Conversion factor molecules/unit cell -> cm^3 STP/gr:                inf [-]
	Conversion factor molecules/unit cell -> cm^3 STP/cm^3:       2.3820335839 [-]
	Conversion factor mol/kg -> cm^3 STP/gr:      22.4139757476 [-]
	Conversion factor mol/kg -> cm^3 STP/cm^3:       0.0000000000 [-]

	Partial pressure: -16605402.00000000000000 [Pa]
	                    -124540.51499999999942 [Torr]
	                       -166.05402000000001 [bar]
	                       -163.88257586972614 [atm]

	Fugacity coefficient:      -1.0000000000 [-]

	Partial fugacity:  16605402.00000000000000 [Pa]
	                     124540.51499999999942 [Torr]
	                        166.05402000000001 [bar]
	                        163.88257586972614 [atm]

	Molecule contains 5 number of atoms
		atom:    0  is of type:    2 [       CH3] (group: 0)
		atom:    1  is of type:    4 [        CH] (group: 0)
		atom:    2  is of type:    3 [       CH2] (group: 0)
		atom:    3  is of type:    2 [       CH3] (group: 0)
		atom:    4  is of type:    2 [       CH3] (group: 0)

	Molecule contains 0 chirality centers

	Molecule contains 1 number of groups

		group: 0 containing: 5 elements
		-------------------------------------------------
		the group is modelled as flexible, i.e. no constraints
		Mass: 72.148780 [a.u.]
		Mass: 7.667577 [kg/m^3]

		Rotational Degrees of freedom: 0
		Diagonalized inertia vector:       0.0000000000
		                                   0.0000000000
		                                   0.0000000000
		element: 0 atom: 0 [       CH3] Charge:  0.000000 Anisotropy: 0.000000 Connectivity: 1 (1 )
		element: 1 atom: 1 [        CH] Charge:  0.000000 Anisotropy: 0.000000 Connectivity: 3 (0 2 4 )
		element: 2 atom: 2 [       CH2] Charge:  0.000000 Anisotropy: 0.000000 Connectivity: 2 (1 3 )
		element: 3 atom: 3 [       CH3] Charge:  0.000000 Anisotropy: 0.000000 Connectivity: 1 (2 )
		element: 4 atom: 4 [       CH3] Charge:  0.000000 Anisotropy: 0.000000 Connectivity: 1 (1 )

		Dipole:           0.0000000000 [D]
		Quadrupole:       0.0000000000       0.0000000000       0.0000000000 [D Angstrom]
		Quadrupole tensor [D Angstrom]
				       0.0000000000       0.0000000000       0.0000000000
				       0.0000000000       0.0000000000       0.0000000000
				       0.0000000000       0.0000000000       0.0000000000

	Starting bead for growth               : 0

	Degrees of freedom                     : 0
	Translational degrees of freedom       : 0
	Rotational degrees of freedom          : 0
	Vibrational degrees of freedom         : 0
	Constraint degrees of freedom          : 0

	Number of atoms                        : 5

	Number of constraint bonds             : 0
	Number of constraint bends             : 0
	Number of constraint inversion bends   : 0
	Number of constraint torsions          : 0
	Number of constraint improper torsions : 0
	Number of constraint improper torsions : 0

	Number of bonds                        : 4
	Number of Urey-Bradleys                : 0
	Number of bends                        : 4
	Number of inversion bends              : 0
	Number of torsions                     : 2
	Number of improper torsions            : 0
	Number of improper torsions            : 0

	Number of bond/bond cross terms        : 0
	Number of bond/bend cross terms        : 0
	Number of bend/bend cross terms        : 0
	Number of stretch/torsion cross terms  : 0
	Number of bend/torsion cross terms     : 0

	Number of charges                      : 0
	Number of bond-dipoles                 : 0

	Number of intra Van der Waals                             : 0
	Number of intra charge-charge Coulomb                     : 0
	Number of intra charge-bonddipole Coulomb                 : 0
	Number of intra bonddipole-bonddipole Coulomb             : 0

	Number of excluded intra charge-charge Coulomb                     : 0
	Number of excluded intra charge-bonddipole Coulomb                 : 0
	Number of excluded intra bonddipole-bonddipole Coulomb             : 0

	Number of cbmc-config moves                               : 4

	Particle Moves:             
		ProbabilityTranslationMove:                  33.333333
			TranslationDirection:      XYZ
		Percentage of random translation moves:            0.000000
		Percentage of rotation moves:                      33.333333
		Percentage of random rotation moves:               0.000000
		Percentage of partial reinsertion moves:           0.000000
		Percentage of reinsertion moves:                   33.333333
		Percentage of reinsertion-in-place moves:          0.000000
		Percentage of reinsertion-in-plane moves:          0.000000
		Percentage of identity-change moves:               0.000000
		Percentage of swap (insert/delete) moves:          0.000000
		Percentage of CF swap lambda moves:                0.000000
		Percentage of CB/CFMC swap lambda moves:           0.000000
		Percentage of Widom insertion moves:               0.000000
		Percentage of CF-Widom insertion moves:            0.000000
		Percentage of Gibbs Widom insertion moves:         0.000000
		Percentage of surface-area moves:                  0.000000
		Percentage of Gibbs particle-transfer moves:       0.000000
		Percentage of Gibbs identity-change moves:         0.000000
		Percentage of CF Gibbs lambda-transfer moves:      0.000000
		Percentage of CB/CFMC Gibbs lambda-transfer moves: 0.000000
		Percentage of exchange frac./int. particle moves:  0.000000
		Percentage of fractional mol. to other box moves:  0.000000
		Percentage of lambda-change moves:                 0.000000
		Percentage of fractional to integer moves:         0.000000

	System Moves:
		Percentage of parallel-tempering moves:            0.000000
		Percentage of hyper-parallel-tempering moves:      0.000000
		Percentage of parallel-mol-fraction moves:         0.000000
			   Component A: 0 B: 1
		Percentage of chiral inversion moves:              0.000000
		Percentage of Hybrid-NVE moves:                    0.000000
		Percentage of Hybrid-NPH moves:                    0.000000
		Percentage of Hybrid-NPHPR moves:                  0.000000
		Percentage of volume-change moves:                 0.000000
		Percentage of box-shape-change moves:              0.000000
		Percentage of Gibbs volume-change moves:           0.000000
		Percentage of framework-change moves:              0.000000
		Percentage of framework-shift moves:               0.000000
		Percentage of reactive MC moves:                   0.000000

	Moves are restricted: No
	No biased sampling used for this component

	Number of Bonds: 4
	--------------------------------------------
	Bond interaction 0: A=0 B=1 Type:HARMONIC_BOND
		HARMONIC_BOND: p_0/k_B=96500.000000 [K/A^2], p_1=1.540000   [A]
	Bond interaction 1: A=1 B=2 Type:HARMONIC_BOND
		HARMONIC_BOND: p_0/k_B=96500.000000 [K/A^2], p_1=1.540000   [A]
	Bond interaction 2: A=1 B=4 Type:HARMONIC_BOND
		HARMONIC_BOND: p_0/k_B=96500.000000 [K/A^2], p_1=1.540000   [A]
	Bond interaction 3: A=2 B=3 Type:HARMONIC_BOND
		HARMONIC_BOND: p_0/k_B=96500.000000 [K/A^2], p_1=1.540000   [A]

	Number of Bends: 4
	--------------------------------------------
	Bend interaction 0: A=0 B=1 C=2 Type:HARMONIC_BEND
		HARMONIC_BEND: p_0/k_B=62500.000000 [K/rad^2], p_1=112.000000 [degrees]
	Bend interaction 1: A=0 B=1 C=4 Type:HARMONIC_BEND
		HARMONIC_BEND: p_0/k_B=62500.000000 [K/rad^2], p_1=112.000000 [degrees]
	Bend interaction 2: A=4 B=1 C=2 Type:HARMONIC_BEND
		HARMONIC_BEND: p_0/k_B=62500.000000 [K/rad^2], p_1=112.000000 [degrees]
	Bend interaction 3: A=1 B=2 C=3 Type:HARMONIC_BEND
		HARMONIC_BEND: p_0/k_B=62500.000000 [K/rad^2], p_1=114.000000 [degrees]

	Number of Torsions: 2
	--------------------------------------------
	Torsions interaction 0: A=0 B=1 C=2 D=3 Type:TRAPPE_DIHEDRAL
		TRAPPE_DIHEDRAL: p_0/k_B=-251.060000 [K], p_1/k_B=428.730000 [K], p_2/k_B=-111.850000 [K], p_3/k_B=441.270000 [K]
	Torsions interaction 1: A=4 B=1 C=2 D=3 Type:TRAPPE_DIHEDRAL
		TRAPPE_DIHEDRAL: p_0/k_B=-251.060000 [K], p_1/k_B=428.730000 [K], p_2/k_B=-111.850000 [K], p_3/k_B=441.270000 [K]

	number of cbmc-config changes: 4
	--------------------------------------------
	nr fixed 2: 0 1 
	nr fixed 2: 3 2 
	nr fixed 3: 3 2 1 
	nr fixed 4: 0 1 2 4 

	number of identity-config changes: 1
	--------------------------------------------
	nr fixed 1: 0 

	Number of pockets blocked in a unitcell: 0
		Pockets are NOT blocked for this component



System Properties
===========================================================================
Unit cell size: 25.000000 25.000000 25.000000
Cell angles (radians)  alpha: 1.570796 beta: 1.570796 gamma: 1.570796
Cell angles (degrees)  alpha: 90.000000 beta: 90.000000 gamma: 90.000000
Number of unitcells [a]: 1
Number of unitcells [b]: 1
Number of unitcells [c]: 1

RECTANGULAR Boundary conditions: alpha=beta=gamma=90 degrees

Cartesian axis A is collinear with crystallographic axis a
Cartesian axis B is collinear with (axb)xA
Cartesian axis C is collinear with (axb)

lengths of cell vectors:
 25.00000  25.00000  25.00000
cosines of cell angles:
  0.00000   0.00000   0.00000
perpendicular cell widths:
 25.00000  25.00000  25.00000
volume of the cell: 15625.000000000000 (A^3)

Orthogonalization matrix Box
Transforms fractional coordinates abc into orthonormal Cartesian coordinates xyz
Deorthogonalization matrix InverseBox
Transforms orthonormal Cartesian coordinates xyz into fractional coordinates xyz

Box[0]:
	   25.000000000000     0.000000000000     0.000000000000
	    0.000000000000    25.000000000000     0.000000000000
	    0.000000000000     0.000000000000    25.000000000000

Inverse box[0]:
	    0.040000000000    -0.000000000000    -0.000000000000
	    0.000000000000     0.040000000000    -0.000000000000
	    0.000000000000     0.000000000000     0.040000000000


Unitcell box[0]:
	   25.000000000000     0.000000000000     0.000000000000
	    0.000000000000    25.000000000000     0.000000000000
	    0.000000000000     0.000000000000    25.000000000000

Unitcell inverse box[0]:
	    0.040000000000    -0.000000000000    -0.000000000000
	    0.000000000000     0.040000000000    -0.000000000000
	    0.000000000000     0.000000000000     0.040000000000

lengths of cell vectors (inverse box):
  0.04000   0.04000   0.04000
cosines of cell angles (inverse box):
 -0.00000  -0.00000  -0.00000
perpendicular cell widths (inverse):
  0.04000   0.04000   0.04000
volume of the cell: 15625.000000000000 (A^3)

No replicas are used
Framework is simulated as 'rigid'
Number of framework atoms: 0
Number of framework atoms in the unit cell: 0
Framework Mass:     0.000000000000 [g/mol]
Framework Density:     0.000000000000 [kg/m^3]                inf [cm^3/g]
Helium void fraction:    0.00000000
Available pore volume:    0.00000000 [A^3]           nan [cm^3/g]
Conversion factor from molecule/unit cell -> kmol/m^3: 0.106274, kmol/m^3 accesible pore volume: inf

Number Of Frameworks (per system): 0
----------------------------------------------------------------------

Current Atom Status
===========================================================================
Number of framework atoms        : 0
Number of cations molecules      : 0
Number of adsorbate molecules    : 32
Component    0 :   32 molecules
Pseudo Atoms    0 [    UNIT]:    0 atoms
Pseudo Atoms    1 [     CH4]:    0 atoms
Pseudo Atoms    2 [     CH3]:   96 atoms
Pseudo Atoms    3 [     CH2]:   32 atoms
Pseudo Atoms    4 [      CH]:   32 atoms
Pseudo Atoms    5 [       C]:    0 atoms


Current (initial full energy) Energy Status
===========================================================================

Internal energy:
Host stretch energy:                                            0.00000000
Host UreyBradley energy:                                        0.00000000
Host bend energy:                                               0.00000000
Host inversion-bend energy:                                     0.00000000
Host torsion energy:                                            0.00000000
Host improper torsion energy:                                   0.00000000
Host out-of-plane energy:                                       0.00000000
Host stretch/stretch energy:                                    0.00000000
Host bend/bend energy:                                          0.00000000
Host stretch/bend energy:                                       0.00000000
Host stretch/torsion energy:                                    0.00000000
Host bend/torsion energy:                                       0.00000000

Adsorbate stretch energy:                                   16498.67694386
Adsorbate UreyBradley energy:                                   0.00000000
Adsorbate bend energy:                                      17092.85420750
Adsorbate inversion-bend energy:                                0.00000000
Adsorbate torsion energy:                                    5989.53012672
Adsorbate improper torsion energy:                              0.00000000
Adsorbate out-of-plane energy:                                  0.00000000
Adsorbate stretch/stretch energy:                               0.00000000
Adsorbate bend/bend energy:                                     0.00000000
Adsorbate stretch/bend energy:                                  0.00000000
Adsorbate stretch/torsion energy:                               0.00000000
Adsorbate bend/torsion energy:                                  0.00000000
Adsorbate intra VDW energy:                                     0.00000000
Adsorbate intra charge-charge Coulomb energy:                   0.00000000
Adsorbate intra charge-bonddipole Coulomb energy:               0.00000000
Adsorbate intra bonddipole-bonddipole Coulomb energy:           0.00000000

Cation stretch energy:                                          0.00000000
Cation UreyBradley energy:                                      0.00000000
Cation bend energy:                                             0.00000000
Cation inversion-bend energy:                                   0.00000000
Cation torsion energy:                                          0.00000000
Cation improper torsion energy:                                 0.00000000
Cation out-of-plane energy:                                     0.00000000
Cation stretch/stretch energy:                                  0.00000000
Cation bend/bend energy:                                        0.00000000
Cation stretch/bend energy:                                     0.00000000
Cation stretch/torsion energy:                                  0.00000000
Cation bend/torsion energy:                                     0.00000000
Cation intra VDW energy:                                        0.00000000
Cation intra charge-charge Coulomb energy:                      0.00000000
Cation intra charge-bonddipole Coulomb energy:                  0.00000000
Cation intra bonddipole-bonddipole Coulomb energy:              0.00000000

Host/Host energy:                                             0.00000000
	Host/Host VDW energy:                                         0.00000000
	Host/Host Coulomb energy:                                     0.00000000
	Host/Host charge-charge Real energy:                          0.00000000
	Host/Host charge-charge Fourier energy:                       0.00000000
	Host/Host charge-bonddipole Real energy:                      0.00000000
	Host/Host charge-bonddipole Fourier energy:                   0.00000000
	Host/Host bondipole-bonddipole Real energy:                   0.00000000
	Host/Host bondipole-bonddipole Fourier energy:                0.00000000

Host/Adsorbate energy:                                        0.00000000
	Host/Adsorbate VDW energy:                                    0.00000000
	Host/Adsorbate Coulomb energy:                                0.00000000
	Host/Adsorbate charge-charge Real energy:                     0.00000000
	Host/Adsorbate charge-charge Fourier energy:                  0.00000000
	Host/Adsorbate charge-bonddipole Real energy:                 0.00000000
	Host/Adsorbate charge-bonddipole Fourier energy:              0.00000000
	Host/Adsorbate bondipole-bonddipole Real energy:              0.00000000
	Host/Adsorbate bondipole-bonddipole Fourier energy:           0.00000000

Host/Cation energy:                                           0.00000000
	Host/Cation VDW energy:                                       0.00000000
	Host/Cation Coulomb energy:                                   0.00000000
	Host/Cation charge-charge Real energy:                        0.00000000
	Host/Cation charge-charge Fourier energy:                     0.00000000
	Host/Cation charge-bonddipole Real energy:                    0.00000000
	Host/Cation charge-bonddipole Fourier energy:                 0.00000000
	Host/Cation bondipole-bonddipole Real energy:                 0.00000000
	Host/Cation bondipole-bonddipole Fourier energy:              0.00000000

Adsorbate/Adsorbate energy:                                   -21695.21278859
	Adsorbate/Adsorbate VDW energy:                               -21695.21278859
	Adsorbate/Adsorbate Coulomb energy:                                0.00000000
	Adsorbate/Adsorbate charge-charge Real energy:                     0.00000000
	Adsorbate/Adsorbate charge-charge Fourier energy:                  0.00000000
	Adsorbate/Adsorbate charge-bonddipole Real energy:                 0.00000000
	Adsorbate/Adsorbate charge-bonddipole Fourier energy:              0.00000000
	Adsorbate/Adsorbate bondipole-bonddipole Real energy:              0.00000000
	Adsorbate/Adsorbate bondipole-bonddipole Fourier energy:           0.00000000

Adsorbate/Cation energy:                                           0.00000000
	Adsorbate/Cation VDW energy:                                       0.00000000
	Adsorbate/Cation Coulomb energy:                                   0.00000000
	Adsorbate/Cation charge-charge Real energy:                        0.00000000
	Adsorbate/Cation charge-charge Fourier energy:                     0.00000000
	Adsorbate/Cation charge-bonddipole Real energy:                    0.00000000
	Adsorbate/Cation charge-bonddipole Fourier energy:                 0.00000000
	Adsorbate/Cation bondipole-bonddipole Real energy:                 0.00000000
	Adsorbate/Cation bondipole-bonddipole Fourier energy:              0.00000000

Cation/Cation energy:                                           0.00000000
	Cation/Cation VDW energy:                                       0.00000000
	Cation/Cation Coulomb energy:                                   0.00000000
	Cation/Cation charge-charge Real energy:                        0.00000000
	Cation/Cation charge-charge Fourier energy:                     0.00000000
	Cation/Cation charge-bonddipole Real energy:                    0.00000000
	Cation/Cation charge-bonddipole Fourier energy:                 0.00000000
	Cation/Cation bondipole-bonddipole Real energy:                 0.00000000
	Cation/Cation bondipole-bonddipole Fourier energy:              0.00000000

Polarization energy:
	Host polarization energy:                                     0.00000000
	Adsorbate polarization energy:                                0.00000000
	Cation polarization energy:                                   0.00000000
	Host back-polarization energy:                                     0.00000000
	Adsorbate back-polarization energy:                                0.00000000
	Cation back-polarization energy:                                   0.00000000

Tail-correction energy:                                       0.00000000

Distance constraints energy:                                  0.00000000
Angle constraints energy:                                     0.00000000
Dihedral constraints energy:                                  0.00000000
Inversion-bend constraints energy:                            0.00000000
Out-of-plane distance constraints energy:                     0.00000000
Exclusion constraints energy:                                 0.00000000

===================================================================
Total energy: 17885.848489488653
	Total Van der Waals: -21695.212789
	Total Coulomb: 0.000000

	Total Polarization: 0.000000







+++++++++++++++++++++++++++++++++++++++++++++++++++++++++++++++++++++++++
Starting simulation
+++++++++++++++++++++++++++++++++++++++++++++++++++++++++++++++++++++++++

[Init] Current cycle: 0 out of 5000
========================================================================================================

Net charge: 0 (F: 0, A: 0, C: 0)
Current Box:  25.00000   0.00000   0.00000 [A]
               0.00000  25.00000   0.00000 [A]
               0.00000   0.00000  25.00000 [A]
Box-lengths:  25.00000  25.00000  25.00000 Box-angles:   90.00000  90.00000  90.00000 [degrees]
Volume: 15625.00000 [A^3]

Amount of molecules per component:
----------------------------------------------------------------------------------------------------------------------------------------------------
Component 0 (2-methylbutane), current number of integer/fractional/reaction molecules: 32/0/0, density: 245.36258 [kg/m^3]
----------------------------------------------------------------------------------------------------------------------------------------------------
Degrees of freedom: 480 0 480 0
Number of Framework-atoms:      0
Number of Adsorbates:          32 (32 integer, 0 fractional, 0 reaction)
Number of Cations:              0 (0 integer, 0 fractional, 0 reaction

Current total potential energy:             17885.8484894887 [K]
	Current Host-Host energy:                     0.0000000000 [K]
	Current Host-Adsorbate energy:                0.0000000000 [K]
	Current Host-Cation energy:                   0.0000000000 [K]
	Current Adsorbate-Adsorbate energy:      -21695.2127885922 [K]
	Current Cation-Cation energy:                 0.0000000000 [K]
	Current Adsorbate-Cation energy:              0.0000000000 [K]



[Equilibration] Current cycle: 0 out of 10000
========================================================================================================

Net charge: 0 (F: 0, A: 0, C: 0)
Current Box:  25.00000   0.00000   0.00000 [A]
               0.00000  25.00000   0.00000 [A]
               0.00000   0.00000  25.00000 [A]
Box-lengths:  25.00000  25.00000  25.00000 Box-angles:   90.00000  90.00000  90.00000 [degrees]
Volume: 15625.00000 [A^3]

Total linear momentum:       0.0000000000 [A]       0.0000000000 [A]      -0.0000000000 [A]

Amount of molecules per component:
----------------------------------------------------------------------------------------------------------------------------------------------------
Component 0 (2-methylbutane), current number of integer/fractional/reaction molecules: 32/0/0, density: 245.36258 [kg/m^3]
----------------------------------------------------------------------------------------------------------------------------------------------------
Degrees of freedom: 477 0 477 0
Number of Framework-atoms:      0
Number of Adsorbates:          32 (32 integer, 0 fractional, 0 reaction)
Number of Cations:              0 (0 integer, 0 fractional, 0 reaction)

Conserved energy:       62823.7184321534 Energy drifts:  0.0000000000           0.0000000000
Temperature:                    290.0092151094
Temperature Adsorbates:         290.0092151094
Cell temperature:    0.000
Current total kinetic energy:             57508.8239704785 [K]
Current total Nose-Hoover energy:           754.2181423149 [K]
Current total potential energy:             -7250.6572169818 [K]
	Current Host-Host energy:                     0.0000000000 [K]
	Current Host-Adsorbate energy:                0.0000000000 [K]
	Current Host-Cation energy:                   0.0000000000 [K]
	Current Adsorbate-Adsorbate energy:      -51546.2525490163 [K]
	Current Cation-Cation energy:                 0.0000000000 [K]
	Current Adsorbate-Cation energy:              0.0000000000 [K]



Average Properties at Current cycle: 0 out of 5000000
========================================================================================

Framework surface area:                nan [m^2/g]        0.0000000000 [m^2/cm^3]       0.0000000000 [A^2]
	Cation surface area:                                nan [m^2/g]        0.0000000000 [m^2/cm^3]       0.0000000000 [A^2]
Compressibility:       0.0000000000 [-]
Henry coefficients
	Component 0: 0 [mol/kg/Pa] (Rosenbluth factor new: 0 [-])
Energy <U_gh>_1-<U_h>_0 from Widom


Current cycle: 0 out of 5000000
========================================================================================================

Time run:   0.000000 [ps]   0.000000 [ns] 
Net charge: 0 (F: 0, A: 0, C: 0)
Current Box:  25.00000   0.00000   0.00000 [A]   Average Box:  25.00000   0.00000   0.00000 [A]
               0.00000  25.00000   0.00000 [A]                  0.00000  25.00000   0.00000 [A]
               0.00000   0.00000  25.00000 [A]                  0.00000   0.00000  25.00000 [A]
Box-lengths:   25.00000  25.00000  25.00000 [A] Average:  25.00000  25.00000  25.00000 [A]
Box-angles:   90.00000  90.00000  90.00000 [degrees] Average:  90.00000  90.00000  90.00000 [degrees]
Volume: 15625.00000 [A^3] Average Volume: 15625.00000 [A^3]

Total linear momentum:      -0.0000000000 [A]      -0.0000000000 [A]       0.0000000000 [A]

Current Stress:  16.63623   9.40072   5.28433 [MPa]   Average Stress: 16636.22632 9400.71678 5284.32879 [kPa]
                  9.40072 -15.60521  21.86251 [MPa]                   9400.71678 -15605.20609 21862.50924 [kPa]
                  5.28433  21.86251 -13.52252 [MPa]                   5284.32879 21862.50924 -13522.51867 [kPa]
Average pressure:   -4163.8328112702 [kPa]     -41.0938348016 [atm]     -41.6383281127 [bar]

Amount of molecules per component:
----------------------------------------------------------------------------------------------------------------------------------------------------
Component 0 (2-methylbutane), current number of integer/fractional/reaction molecules: 32/0/0 (average  32.00000/  0.00000), density: 245.36258 (average 245.36258) kg/m^3]
----------------------------------------------------------------------------------------------------------------------------------------------------
Degrees of freedom: 477 0 477 0
Number of Framework-atoms:      0
Number of Adsorbates:          32 (32 integer, 0 fractional, 0 reaction)
Number of Cations:              0 (0 integer, 0 fractional, 0 reaction)

Conserved energy:       62822.6259616314 Energy drifts:  0.0000000000           0.0000000000
Temperature:             303.966 (avg.  303.966), Translational (avg.  303.966), Rotational (avg.      nan)
Temperature Adsorbates:  303.966 (avg.  303.966), Translational (avg.  303.966), Rotational (avg.      nan)
Cell temperature:    0.000 (avg.    0.000)
Current total kinetic energy:             60276.4091231098 [K]
Current total Nose-Hoover energy:         -9955.7715598158 [K]
Current total potential energy:              2300.7731430336 [K]  (avg.        2300.7731430336)
	Current Host-Host energy:                     0.0000000000 [K]  (avg.           0.0000000000)
	Current Host-Adsorbate energy:                0.0000000000 [K]  (avg.           0.0000000000)
	Current Host-Cation energy:                   0.0000000000 [K]  (avg.           0.0000000000)
	Current Adsorbate-Adsorbate energy:      -39813.4758233341 [K]  (avg.      -39813.4758233341)
	Current Cation-Cation energy:                 0.0000000000 [K]  (avg.           0.0000000000)
	Current Adsorbate-Cation energy:              0.0000000000 [K]  (avg.           0.0000000000)



Average Properties at Current cycle: 10000 out of 5000000
========================================================================================

Framework surface area:                nan [m^2/g]        0.0000000000 [m^2/cm^3]       0.0000000000 [A^2]
	Cation surface area:                                nan [m^2/g]        0.0000000000 [m^2/cm^3]       0.0000000000 [A^2]
Compressibility:       0.0000000000 [-]
Henry coefficients
	Component 0: 0 [mol/kg/Pa] (Rosenbluth factor new: 0 [-])
Energy <U_gh>_1-<U_h>_0 from Widom


Current cycle: 10000 out of 5000000
========================================================================================================

Time run:   5.000000 [ps]   0.005000 [ns] 
Net charge: 0 (F: 0, A: 0, C: 0)
Current Box:  25.00000   0.00000   0.00000 [A]   Average Box:  25.00000   0.00000   0.00000 [A]
               0.00000  25.00000   0.00000 [A]                  0.00000  25.00000   0.00000 [A]
               0.00000   0.00000  25.00000 [A]                  0.00000   0.00000  25.00000 [A]
Box-lengths:   25.00000  25.00000  25.00000 [A] Average:  25.00000  25.00000  25.00000 [A]
Box-angles:   90.00000  90.00000  90.00000 [degrees] Average:  90.00000  90.00000  90.00000 [degrees]
Volume: 15625.00000 [A^3] Average Volume: 15625.00000 [A^3]

Total linear momentum:      -0.0000000000 [A]      -0.0000000000 [A]       0.0000000000 [A]

Current Stress:  58.39833  26.19651   4.51584 [MPa]   Average Stress: -1555.91631 -212.47265 304.94242 [kPa]
                 26.19651  54.88868   8.46745 [MPa]                   -212.47265 -4319.70907 1535.59550 [kPa]
                  4.51584   8.46745  49.07815 [MPa]                   304.94242 1535.59550 -8099.46416 [kPa]
Average pressure:   -4658.3631798634 [kPa]     -45.9744700702 [atm]     -46.5836317986 [bar]

Amount of molecules per component:
----------------------------------------------------------------------------------------------------------------------------------------------------
Component 0 (2-methylbutane), current number of integer/fractional/reaction molecules: 32/0/0 (average  32.00000/  0.00000), density: 245.36258 (average 245.36258) kg/m^3]
----------------------------------------------------------------------------------------------------------------------------------------------------
Degrees of freedom: 477 0 477 0
Number of Framework-atoms:      0
Number of Adsorbates:          32 (32 integer, 0 fractional, 0 reaction)
Number of Cations:              0 (0 integer, 0 fractional, 0 reaction)

Conserved energy:       62819.4812646047 Energy drifts:  0.0000602045           0.0000268163
Temperature:             304.108 (avg.  294.141), Translational (avg.  294.141), Rotational (avg.      nan)
Temperature Adsorbates:  304.108 (avg.  294.141), Translational (avg.  294.141), Rotational (avg.      nan)
Cell temperature:    0.000 (avg.    0.000)
Current total kinetic energy:             60304.5231717451 [K]
Current total Nose-Hoover energy:          -684.2024983158 [K]
Current total potential energy:             -8887.3262705000 [K]  (avg.        -714.4404619212)
	Current Host-Host energy:                     0.0000000000 [K]  (avg.           0.0000000000)
	Current Host-Adsorbate energy:                0.0000000000 [K]  (avg.           0.0000000000)
	Current Host-Cation energy:                   0.0000000000 [K]  (avg.           0.0000000000)
	Current Adsorbate-Adsorbate energy:      -49449.9081621482 [K]  (avg.      -45042.8442040061)
	Current Cation-Cation energy:                 0.0000000000 [K]  (avg.           0.0000000000)
	Current Adsorbate-Cation energy:              0.0000000000 [K]  (avg.           0.0000000000)



Average Properties at Current cycle: 20000 out of 5000000
========================================================================================

Framework surface area:                nan [m^2/g]        0.0000000000 [m^2/cm^3]       0.0000000000 [A^2]
	Cation surface area:                                nan [m^2/g]        0.0000000000 [m^2/cm^3]       0.0000000000 [A^2]
Compressibility:       0.0000000000 [-]
Henry coefficients
	Component 0: 0 [mol/kg/Pa] (Rosenbluth factor new: 0 [-])
Energy <U_gh>_1-<U_h>_0 from Widom


Current cycle: 20000 out of 5000000
========================================================================================================

Time run:  10.000000 [ps]   0.010000 [ns] 
Net charge: 0 (F: 0, A: 0, C: 0)
Current Box:  25.00000   0.00000   0.00000 [A]   Average Box:  25.00000   0.00000   0.00000 [A]
               0.00000  25.00000   0.00000 [A]                  0.00000  25.00000   0.00000 [A]
               0.00000   0.00000  25.00000 [A]                  0.00000   0.00000  25.00000 [A]
Box-lengths:   25.00000  25.00000  25.00000 [A] Average:  25.00000  25.00000  25.00000 [A]
Box-angles:   90.00000  90.00000  90.00000 [degrees] Average:  90.00000  90.00000  90.00000 [degrees]
Volume: 15625.00000 [A^3] Average Volume: 15625.00000 [A^3]

Total linear momentum:       0.0000000000 [A]      -0.0000000000 [A]       0.0000000000 [A]

Current Stress: -133.26175 -24.71403  27.82432 [MPa]   Average Stress: -1722.86913 -596.72249 -269.66167 [kPa]
                -24.71403  50.05405 -46.87575 [MPa]                   -596.72249 -5427.23426 2088.01915 [kPa]
                 27.82432 -46.87575 -97.34747 [MPa]                   -269.66167 2088.01915 -6630.07545 [kPa]
Average pressure:   -4593.3929467429 [kPa]     -45.3332637231 [atm]     -45.9339294674 [bar]

Amount of molecules per component:
----------------------------------------------------------------------------------------------------------------------------------------------------
Component 0 (2-methylbutane), current number of integer/fractional/reaction molecules: 32/0/0 (average  32.00000/  0.00000), density: 245.36258 (average 245.36258) kg/m^3]
----------------------------------------------------------------------------------------------------------------------------------------------------
Degrees of freedom: 477 0 477 0
Number of Framework-atoms:      0
Number of Adsorbates:          32 (32 integer, 0 fractional, 0 reaction)
Number of Cations:              0 (0 integer, 0 fractional, 0 reaction)

Conserved energy:       62824.6841092398 Energy drifts:  0.0000394027           0.0000250775
Temperature:             288.424 (avg.  294.588), Translational (avg.  294.588), Rotational (avg.      nan)
Temperature Adsorbates:  288.424 (avg.  294.588), Translational (avg.  294.588), Rotational (avg.      nan)
Cell temperature:    0.000 (avg.    0.000)
Current total kinetic energy:             57194.3833645491 [K]
Current total Nose-Hoover energy:         -6089.4904580673 [K]
Current total potential energy:              1359.5883439900 [K]  (avg.       -1823.1681364094)
	Current Host-Host energy:                     0.0000000000 [K]  (avg.           0.0000000000)
	Current Host-Adsorbate energy:                0.0000000000 [K]  (avg.           0.0000000000)
	Current Host-Cation energy:                   0.0000000000 [K]  (avg.           0.0000000000)
	Current Adsorbate-Adsorbate energy:      -49358.9847340770 [K]  (avg.      -45911.2324962218)
	Current Cation-Cation energy:                 0.0000000000 [K]  (avg.           0.0000000000)
	Current Adsorbate-Cation energy:              0.0000000000 [K]  (avg.           0.0000000000)



Average Properties at Current cycle: 30000 out of 5000000
========================================================================================

Framework surface area:                nan [m^2/g]        0.0000000000 [m^2/cm^3]       0.0000000000 [A^2]
	Cation surface area:                                nan [m^2/g]        0.0000000000 [m^2/cm^3]       0.0000000000 [A^2]
Compressibility:       0.0000000000 [-]
Henry coefficients
	Component 0: 0 [mol/kg/Pa] (Rosenbluth factor new: 0 [-])
Energy <U_gh>_1-<U_h>_0 from Widom


Current cycle: 30000 out of 5000000
========================================================================================================

Time run:  15.000000 [ps]   0.015000 [ns] 
Net charge: 0 (F: 0, A: 0, C: 0)
Current Box:  25.00000   0.00000   0.00000 [A]   Average Box:  25.00000   0.00000   0.00000 [A]
               0.00000  25.00000   0.00000 [A]                  0.00000  25.00000   0.00000 [A]
               0.00000   0.00000  25.00000 [A]                  0.00000   0.00000  25.00000 [A]
Box-lengths:   25.00000  25.00000  25.00000 [A] Average:  25.00000  25.00000  25.00000 [A]
Box-angles:   90.00000  90.00000  90.00000 [degrees] Average:  90.00000  90.00000  90.00000 [degrees]
Volume: 15625.00000 [A^3] Average Volume: 15625.00000 [A^3]

Total linear momentum:      -0.0000000000 [A]      -0.0000000000 [A]       0.0000000000 [A]

Current Stress: -62.96197  77.41519  32.06322 [MPa]   Average Stress: -1374.17146 -898.03289 -291.15856 [kPa]
                 77.41519  23.04937  58.11864 [MPa]                   -898.03289 -6103.68956 1742.82675 [kPa]
                 32.06322  58.11864 -23.91147 [MPa]                   -291.15856 1742.82675 -7789.70889 [kPa]
Average pressure:   -5089.1899693093 [kPa]     -50.2263998945 [atm]     -50.8918996931 [bar]

Amount of molecules per component:
----------------------------------------------------------------------------------------------------------------------------------------------------
Component 0 (2-methylbutane), current number of integer/fractional/reaction molecules: 32/0/0 (average  32.00000/  0.00000), density: 245.36258 (average 245.36258) kg/m^3]
----------------------------------------------------------------------------------------------------------------------------------------------------
Degrees of freedom: 477 0 477 0
Number of Framework-atoms:      0
Number of Adsorbates:          32 (32 integer, 0 fractional, 0 reaction)
Number of Cations:              0 (0 integer, 0 fractional, 0 reaction)

Conserved energy:       62822.9939314175 Energy drifts:  0.0000070447           0.0000242906
Temperature:             309.948 (avg.  295.955), Translational (avg.  295.955), Rotational (avg.      nan)
Temperature Adsorbates:  309.948 (avg.  295.955), Translational (avg.  295.955), Rotational (avg.      nan)
Cell temperature:    0.000 (avg.    0.000)
Current total kinetic energy:             61462.7503179371 [K]
Current total Nose-Hoover energy:         -6422.3570297947 [K]
Current total potential energy:             -3375.4237152732 [K]  (avg.       -2143.1103858792)
	Current Host-Host energy:                     0.0000000000 [K]  (avg.           0.0000000000)
	Current Host-Adsorbate energy:                0.0000000000 [K]  (avg.           0.0000000000)
	Current Host-Cation energy:                   0.0000000000 [K]  (avg.           0.0000000000)
	Current Adsorbate-Adsorbate energy:      -45127.7269521519 [K]  (avg.      -46679.5092717220)
	Current Cation-Cation energy:                 0.0000000000 [K]  (avg.           0.0000000000)
	Current Adsorbate-Cation energy:              0.0000000000 [K]  (avg.           0.0000000000)



Average Properties at Current cycle: 40000 out of 5000000
========================================================================================

Framework surface area:                nan [m^2/g]        0.0000000000 [m^2/cm^3]       0.0000000000 [A^2]
	Cation surface area:                                nan [m^2/g]        0.0000000000 [m^2/cm^3]       0.0000000000 [A^2]
Compressibility:       0.0000000000 [-]
Henry coefficients
	Component 0: 0 [mol/kg/Pa] (Rosenbluth factor new: 0 [-])
Energy <U_gh>_1-<U_h>_0 from Widom


Current cycle: 40000 out of 5000000
========================================================================================================

Time run:  20.000000 [ps]   0.020000 [ns] 
Net charge: 0 (F: 0, A: 0, C: 0)
Current Box:  25.00000   0.00000   0.00000 [A]   Average Box:  25.00000   0.00000   0.00000 [A]
               0.00000  25.00000   0.00000 [A]                  0.00000  25.00000   0.00000 [A]
               0.00000   0.00000  25.00000 [A]                  0.00000   0.00000  25.00000 [A]
Box-lengths:   25.00000  25.00000  25.00000 [A] Average:  25.00000  25.00000  25.00000 [A]
Box-angles:   90.00000  90.00000  90.00000 [degrees] Average:  90.00000  90.00000  90.00000 [degrees]
Volume: 15625.00000 [A^3] Average Volume: 15625.00000 [A^3]

Total linear momentum:      -0.0000000000 [A]      -0.0000000000 [A]      -0.0000000000 [A]

Current Stress: -58.45377 -66.64279 -13.71651 [MPa]   Average Stress: -1592.80468 -818.82391 -554.50633 [kPa]
                -66.64279 -10.57063 -34.94542 [MPa]                   -818.82391 -5774.94934 907.08250 [kPa]
                -13.71651 -34.94542  64.47811 [MPa]                   -554.50633 907.08250 -7353.00695 [kPa]
Average pressure:   -4906.9203235112 [kPa]     -48.4275383519 [atm]     -49.0692032351 [bar]

Amount of molecules per component:
----------------------------------------------------------------------------------------------------------------------------------------------------
Component 0 (2-methylbutane), current number of integer/fractional/reaction molecules: 32/0/0 (average  32.00000/  0.00000), density: 245.36258 (average 245.36258) kg/m^3]
----------------------------------------------------------------------------------------------------------------------------------------------------
Degrees of freedom: 477 0 477 0
Number of Framework-atoms:      0
Number of Adsorbates:          32 (32 integer, 0 fractional, 0 reaction)
Number of Cations:              0 (0 integer, 0 fractional, 0 reaction)

Conserved energy:       62823.3944800482 Energy drifts:  0.0000147131           0.0000247258
Temperature:             268.173 (avg.  297.268), Translational (avg.  297.268), Rotational (avg.      nan)
Temperature Adsorbates:  268.173 (avg.  297.268), Translational (avg.  297.268), Rotational (avg.      nan)
Cell temperature:    0.000 (avg.    0.000)
Current total kinetic energy:             53178.7452993871 [K]
Current total Nose-Hoover energy:          -356.8241191082 [K]
Current total potential energy:              -706.8128876015 [K]  (avg.       -1734.8221653091)
	Current Host-Host energy:                     0.0000000000 [K]  (avg.           0.0000000000)
	Current Host-Adsorbate energy:                0.0000000000 [K]  (avg.           0.0000000000)
	Current Host-Cation energy:                   0.0000000000 [K]  (avg.           0.0000000000)
	Current Adsorbate-Adsorbate energy:      -44172.2076172660 [K]  (avg.      -46228.8513985137)
	Current Cation-Cation energy:                 0.0000000000 [K]  (avg.           0.0000000000)
	Current Adsorbate-Cation energy:              0.0000000000 [K]  (avg.           0.0000000000)



Average Properties at Current cycle: 50000 out of 5000000
========================================================================================

Framework surface area:                nan [m^2/g]        0.0000000000 [m^2/cm^3]       0.0000000000 [A^2]
	Cation surface area:                                nan [m^2/g]        0.0000000000 [m^2/cm^3]       0.0000000000 [A^2]
Compressibility:       0.0000000000 [-]
Henry coefficients
	Component 0: 0 [mol/kg/Pa] (Rosenbluth factor new: 0 [-])
Energy <U_gh>_1-<U_h>_0 from Widom


Current cycle: 50000 out of 5000000
========================================================================================================

Time run:  25.000000 [ps]   0.025000 [ns] 
Net charge: 0 (F: 0, A: 0, C: 0)
Current Box:  25.00000   0.00000   0.00000 [A]   Average Box:  25.00000   0.00000   0.00000 [A]
               0.00000  25.00000   0.00000 [A]                  0.00000  25.00000   0.00000 [A]
               0.00000   0.00000  25.00000 [A]                  0.00000   0.00000  25.00000 [A]
Box-lengths:   25.00000  25.00000  25.00000 [A] Average:  25.00000  25.00000  25.00000 [A]
Box-angles:   90.00000  90.00000  90.00000 [degrees] Average:  90.00000  90.00000  90.00000 [degrees]
Volume: 15625.00000 [A^3] Average Volume: 15625.00000 [A^3]

Total linear momentum:      -0.0000000000 [A]      -0.0000000000 [A]      -0.0000000000 [A]

Current Stress:  -2.84108 -10.87040  15.10826 [MPa]   Average Stress: -1276.98727 -751.82316 -319.16926 [kPa]
                -10.87040  19.65217   1.93290 [MPa]                   -751.82316 -5722.67451 644.68861 [kPa]
                 15.10826   1.93290  58.79053 [MPa]                   -319.16926 644.68861 -7185.86022 [kPa]
Average pressure:   -4728.5073309075 [kPa]     -46.6667390171 [atm]     -47.2850733091 [bar]

Amount of molecules per component:
----------------------------------------------------------------------------------------------------------------------------------------------------
Component 0 (2-methylbutane), current number of integer/fractional/reaction molecules: 32/0/0 (average  32.00000/  0.00000), density: 245.36258 (average 245.36258) kg/m^3]
----------------------------------------------------------------------------------------------------------------------------------------------------
Degrees of freedom: 477 0 477 0
Number of Framework-atoms:      0
Number of Adsorbates:          32 (32 integer, 0 fractional, 0 reaction)
Number of Cations:              0 (0 integer, 0 fractional, 0 reaction)

Conserved energy:       62821.4694563782 Energy drifts:  0.0000221410           0.0000249111
Temperature:             306.848 (avg.  297.558), Translational (avg.  297.558), Rotational (avg.      nan)
Temperature Adsorbates:  306.848 (avg.  297.558), Translational (avg.  297.558), Rotational (avg.      nan)
Cell temperature:    0.000 (avg.    0.000)
Current total kinetic energy:             60847.9909194758 [K]
Current total Nose-Hoover energy:         -9060.4688327402 [K]
Current total potential energy:               535.3589985972 [K]  (avg.       -2031.2123673356)
	Current Host-Host energy:                     0.0000000000 [K]  (avg.           0.0000000000)
	Current Host-Adsorbate energy:                0.0000000000 [K]  (avg.           0.0000000000)
	Current Host-Cation energy:                   0.0000000000 [K]  (avg.           0.0000000000)
	Current Adsorbate-Adsorbate energy:      -40357.3997496190 [K]  (avg.      -46187.2785552664)
	Current Cation-Cation energy:                 0.0000000000 [K]  (avg.           0.0000000000)
	Current Adsorbate-Cation energy:              0.0000000000 [K]  (avg.           0.0000000000)



Average Properties at Current cycle: 60000 out of 5000000
========================================================================================

Framework surface area:                nan [m^2/g]        0.0000000000 [m^2/cm^3]       0.0000000000 [A^2]
	Cation surface area:                                nan [m^2/g]        0.0000000000 [m^2/cm^3]       0.0000000000 [A^2]
Compressibility:       0.0000000000 [-]
Henry coefficients
	Component 0: 0 [mol/kg/Pa] (Rosenbluth factor new: 0 [-])
Energy <U_gh>_1-<U_h>_0 from Widom


Current cycle: 60000 out of 5000000
========================================================================================================

Time run:  30.000000 [ps]   0.030000 [ns] 
Net charge: 0 (F: 0, A: 0, C: 0)
Current Box:  25.00000   0.00000   0.00000 [A]   Average Box:  25.00000   0.00000   0.00000 [A]
               0.00000  25.00000   0.00000 [A]                  0.00000  25.00000   0.00000 [A]
               0.00000   0.00000  25.00000 [A]                  0.00000   0.00000  25.00000 [A]
Box-lengths:   25.00000  25.00000  25.00000 [A] Average:  25.00000  25.00000  25.00000 [A]
Box-angles:   90.00000  90.00000  90.00000 [degrees] Average:  90.00000  90.00000  90.00000 [degrees]
Volume: 15625.00000 [A^3] Average Volume: 15625.00000 [A^3]

Total linear momentum:      -0.0000000000 [A]      -0.0000000000 [A]      -0.0000000000 [A]

Current Stress:   5.04041 -44.99090 -11.11716 [MPa]   Average Stress: -920.40589 -787.42130 -111.56529 [kPa]
                -44.99090  93.38245   8.84052 [MPa]                   -787.42130 -6317.56926 473.48483 [kPa]
                -11.11716   8.84052  92.37184 [MPa]                   -111.56529 473.48483 -6834.81689 [kPa]
Average pressure:   -4690.9306811486 [kPa]     -46.2958863178 [atm]     -46.9093068115 [bar]

Amount of molecules per component:
----------------------------------------------------------------------------------------------------------------------------------------------------
Component 0 (2-methylbutane), current number of integer/fractional/reaction molecules: 32/0/0 (average  32.00000/  0.00000), density: 245.36258 (average 245.36258) kg/m^3]
----------------------------------------------------------------------------------------------------------------------------------------------------
Degrees of freedom: 477 0 477 0
Number of Framework-atoms:      0
Number of Adsorbates:          32 (32 integer, 0 fractional, 0 reaction)
Number of Cations:              0 (0 integer, 0 fractional, 0 reaction)

Conserved energy:       62823.2624591658 Energy drifts:  0.0000121856           0.0000256928
Temperature:             298.060 (avg.  297.108), Translational (avg.  297.108), Rotational (avg.      nan)
Temperature Adsorbates:  298.060 (avg.  297.108), Translational (avg.  297.108), Rotational (avg.      nan)
Cell temperature:    0.000 (avg.    0.000)
Current total kinetic energy:             59105.3921253532 [K]
Current total Nose-Hoover energy:         -5456.8807483320 [K]
Current total potential energy:             -1701.1050115949 [K]  (avg.       -2480.7768472737)
	Current Host-Host energy:                     0.0000000000 [K]  (avg.           0.0000000000)
	Current Host-Adsorbate energy:                0.0000000000 [K]  (avg.           0.0000000000)
	Current Host-Cation energy:                   0.0000000000 [K]  (avg.           0.0000000000)
	Current Adsorbate-Adsorbate energy:      -50105.7241396994 [K]  (avg.      -46534.3757012752)
	Current Cation-Cation energy:                 0.0000000000 [K]  (avg.           0.0000000000)
	Current Adsorbate-Cation energy:              0.0000000000 [K]  (avg.           0.0000000000)



Average Properties at Current cycle: 70000 out of 5000000
========================================================================================

Framework surface area:                nan [m^2/g]        0.0000000000 [m^2/cm^3]       0.0000000000 [A^2]
	Cation surface area:                                nan [m^2/g]        0.0000000000 [m^2/cm^3]       0.0000000000 [A^2]
Compressibility:       0.0000000000 [-]
Henry coefficients
	Component 0: 0 [mol/kg/Pa] (Rosenbluth factor new: 0 [-])
Energy <U_gh>_1-<U_h>_0 from Widom


Current cycle: 70000 out of 5000000
========================================================================================================

Time run:  35.000000 [ps]   0.035000 [ns] 
Net charge: 0 (F: 0, A: 0, C: 0)
Current Box:  25.00000   0.00000   0.00000 [A]   Average Box:  25.00000   0.00000   0.00000 [A]
               0.00000  25.00000   0.00000 [A]                  0.00000  25.00000   0.00000 [A]
               0.00000   0.00000  25.00000 [A]                  0.00000   0.00000  25.00000 [A]
Box-lengths:   25.00000  25.00000  25.00000 [A] Average:  25.00000  25.00000  25.00000 [A]
Box-angles:   90.00000  90.00000  90.00000 [degrees] Average:  90.00000  90.00000  90.00000 [degrees]
Volume: 15625.00000 [A^3] Average Volume: 15625.00000 [A^3]

Total linear momentum:      -0.0000000000 [A]      -0.0000000000 [A]      -0.0000000000 [A]

Current Stress: -121.26761   2.05996  12.02900 [MPa]   Average Stress: -947.44794 -596.05808  20.25664 [kPa]
                  2.05996  18.31218  14.15758 [MPa]                   -596.05808 -6042.07913 311.47631 [kPa]
                 12.02900  14.15758 -11.54783 [MPa]                    20.25664 311.47631 -7255.85852 [kPa]
Average pressure:   -4748.4618666142 [kPa]     -46.8636749728 [atm]     -47.4846186661 [bar]

Amount of molecules per component:
----------------------------------------------------------------------------------------------------------------------------------------------------
Component 0 (2-methylbutane), current number of integer/fractional/reaction molecules: 32/0/0 (average  32.00000/  0.00000), density: 245.36258 (average 245.36258) kg/m^3]
----------------------------------------------------------------------------------------------------------------------------------------------------
Degrees of freedom: 477 0 477 0
Number of Framework-atoms:      0
Number of Adsorbates:          32 (32 integer, 0 fractional, 0 reaction)
Number of Cations:              0 (0 integer, 0 fractional, 0 reaction)

Conserved energy:       62820.4761552024 Energy drifts:  0.0000411575           0.0000254511
Temperature:             287.038 (avg.  297.592), Translational (avg.  297.592), Rotational (avg.      nan)
Temperature Adsorbates:  287.038 (avg.  297.592), Translational (avg.  297.592), Rotational (avg.      nan)
Cell temperature:    0.000 (avg.    0.000)
Current total kinetic energy:             56919.5902586901 [K]
Current total Nose-Hoover energy:          1733.4550593093 [K]
Current total potential energy:             -7722.9658199419 [K]  (avg.       -2594.8528403263)
	Current Host-Host energy:                     0.0000000000 [K]  (avg.           0.0000000000)
	Current Host-Adsorbate energy:                0.0000000000 [K]  (avg.           0.0000000000)
	Current Host-Cation energy:                   0.0000000000 [K]  (avg.           0.0000000000)
	Current Adsorbate-Adsorbate energy:      -52933.0361807474 [K]  (avg.      -46919.7280601495)
	Current Cation-Cation energy:                 0.0000000000 [K]  (avg.           0.0000000000)
	Current Adsorbate-Cation energy:              0.0000000000 [K]  (avg.           0.0000000000)



Average Properties at Current cycle: 80000 out of 5000000
========================================================================================

Framework surface area:                nan [m^2/g]        0.0000000000 [m^2/cm^3]       0.0000000000 [A^2]
	Cation surface area:                                nan [m^2/g]        0.0000000000 [m^2/cm^3]       0.0000000000 [A^2]
Compressibility:       0.0000000000 [-]
Henry coefficients
	Component 0: 0 [mol/kg/Pa] (Rosenbluth factor new: 0 [-])
Energy <U_gh>_1-<U_h>_0 from Widom


Current cycle: 80000 out of 5000000
========================================================================================================

Time run:  40.000000 [ps]   0.040000 [ns] 
Net charge: 0 (F: 0, A: 0, C: 0)
Current Box:  25.00000   0.00000   0.00000 [A]   Average Box:  25.00000   0.00000   0.00000 [A]
               0.00000  25.00000   0.00000 [A]                  0.00000  25.00000   0.00000 [A]
               0.00000   0.00000  25.00000 [A]                  0.00000   0.00000  25.00000 [A]
Box-lengths:   25.00000  25.00000  25.00000 [A] Average:  25.00000  25.00000  25.00000 [A]
Box-angles:   90.00000  90.00000  90.00000 [degrees] Average:  90.00000  90.00000  90.00000 [degrees]
Volume: 15625.00000 [A^3] Average Volume: 15625.00000 [A^3]

Total linear momentum:       0.0000000000 [A]      -0.0000000000 [A]      -0.0000000000 [A]

Current Stress:  60.19875   1.14960 -10.97474 [MPa]   Average Stress: -1456.77060 -349.38316  56.83537 [kPa]
                  1.14960 -22.41585 -15.16967 [MPa]                   -349.38316 -6968.79883 377.45290 [kPa]
                -10.97474 -15.16967 -34.00422 [MPa]                    56.83537 377.45290 -7702.85346 [kPa]
Average pressure:   -5376.1409640665 [kPa]     -53.0583860258 [atm]     -53.7614096407 [bar]

Amount of molecules per component:
----------------------------------------------------------------------------------------------------------------------------------------------------
Component 0 (2-methylbutane), current number of integer/fractional/reaction molecules: 32/0/0 (average  32.00000/  0.00000), density: 245.36258 (average 245.36258) kg/m^3]
----------------------------------------------------------------------------------------------------------------------------------------------------
Degrees of freedom: 477 0 477 0
Number of Framework-atoms:      0
Number of Adsorbates:          32 (32 integer, 0 fractional, 0 reaction)
Number of Cations:              0 (0 integer, 0 fractional, 0 reaction)

Conserved energy:       62821.6649609524 Energy drifts:  0.0000183981           0.0000253581
Temperature:             298.296 (avg.  297.515), Translational (avg.  297.515), Rotational (avg.      nan)
Temperature Adsorbates:  298.296 (avg.  297.515), Translational (avg.  297.515), Rotational (avg.      nan)
Cell temperature:    0.000 (avg.    0.000)
Current total kinetic energy:             59152.0369948472 [K]
Current total Nose-Hoover energy:         -3816.7696093764 [K]
Current total potential energy:             -3731.4049235220 [K]  (avg.       -2758.3412088101)
	Current Host-Host energy:                     0.0000000000 [K]  (avg.           0.0000000000)
	Current Host-Adsorbate energy:                0.0000000000 [K]  (avg.           0.0000000000)
	Current Host-Cation energy:                   0.0000000000 [K]  (avg.           0.0000000000)
	Current Adsorbate-Adsorbate energy:      -46209.0352848722 [K]  (avg.      -47196.6004590939)
	Current Cation-Cation energy:                 0.0000000000 [K]  (avg.           0.0000000000)
	Current Adsorbate-Cation energy:              0.0000000000 [K]  (avg.           0.0000000000)



Average Properties at Current cycle: 90000 out of 5000000
========================================================================================

Framework surface area:                nan [m^2/g]        0.0000000000 [m^2/cm^3]       0.0000000000 [A^2]
	Cation surface area:                                nan [m^2/g]        0.0000000000 [m^2/cm^3]       0.0000000000 [A^2]
Compressibility:       0.0000000000 [-]
Henry coefficients
	Component 0: 0 [mol/kg/Pa] (Rosenbluth factor new: 0 [-])
Energy <U_gh>_1-<U_h>_0 from Widom


Current cycle: 90000 out of 5000000
========================================================================================================

Time run:  45.000000 [ps]   0.045000 [ns] 
Net charge: 0 (F: 0, A: 0, C: 0)
Current Box:  25.00000   0.00000   0.00000 [A]   Average Box:  25.00000   0.00000   0.00000 [A]
               0.00000  25.00000   0.00000 [A]                  0.00000  25.00000   0.00000 [A]
               0.00000   0.00000  25.00000 [A]                  0.00000   0.00000  25.00000 [A]
Box-lengths:   25.00000  25.00000  25.00000 [A] Average:  25.00000  25.00000  25.00000 [A]
Box-angles:   90.00000  90.00000  90.00000 [degrees] Average:  90.00000  90.00000  90.00000 [degrees]
Volume: 15625.00000 [A^3] Average Volume: 15625.00000 [A^3]

Total linear momentum:       0.0000000000 [A]      -0.0000000000 [A]      -0.0000000000 [A]

Current Stress: -42.06499 -10.52560   3.84066 [MPa]   Average Stress: -1500.73183 -275.39887  39.87750 [kPa]
                -10.52560 -52.48051   0.29461 [MPa]                   -275.39887 -7443.27499 109.47520 [kPa]
                  3.84066   0.29461 -17.86605 [MPa]                    39.87750 109.47520 -8132.83428 [kPa]
Average pressure:   -5692.2803670060 [kPa]     -56.1784393487 [atm]     -56.9228036701 [bar]

Amount of molecules per component:
----------------------------------------------------------------------------------------------------------------------------------------------------
Component 0 (2-methylbutane), current number of integer/fractional/reaction molecules: 32/0/0 (average  32.00000/  0.00000), density: 245.36258 (average 245.36258) kg/m^3]
----------------------------------------------------------------------------------------------------------------------------------------------------
Degrees of freedom: 477 0 477 0
Number of Framework-atoms:      0
Number of Adsorbates:          32 (32 integer, 0 fractional, 0 reaction)
Number of Cations:              0 (0 integer, 0 fractional, 0 reaction)

Conserved energy:       62822.1082238785 Energy drifts:  0.0000099120           0.0000255527
Temperature:             312.583 (avg.  297.844), Translational (avg.  297.844), Rotational (avg.      nan)
Temperature Adsorbates:  312.583 (avg.  297.844), Translational (avg.  297.844), Rotational (avg.      nan)
Cell temperature:    0.000 (avg.    0.000)
Current total kinetic energy:             61985.2842627281 [K]
Current total Nose-Hoover energy:         -7034.3014452827 [K]
Current total potential energy:             -3268.7732783991 [K]  (avg.       -2592.5942385674)
	Current Host-Host energy:                     0.0000000000 [K]  (avg.           0.0000000000)
	Current Host-Adsorbate energy:                0.0000000000 [K]  (avg.           0.0000000000)
	Current Host-Cation energy:                   0.0000000000 [K]  (avg.           0.0000000000)
	Current Adsorbate-Adsorbate energy:      -46270.2766683908 [K]  (avg.      -47265.0203277696)
	Current Cation-Cation energy:                 0.0000000000 [K]  (avg.           0.0000000000)
	Current Adsorbate-Cation energy:              0.0000000000 [K]  (avg.           0.0000000000)



Average Properties at Current cycle: 100000 out of 5000000
========================================================================================

Framework surface area:                nan [m^2/g]        0.0000000000 [m^2/cm^3]       0.0000000000 [A^2]
	Cation surface area:                                nan [m^2/g]        0.0000000000 [m^2/cm^3]       0.0000000000 [A^2]
Compressibility:       0.0000000000 [-]
Henry coefficients
	Component 0: 0 [mol/kg/Pa] (Rosenbluth factor new: 0 [-])
Energy <U_gh>_1-<U_h>_0 from Widom


Current cycle: 100000 out of 5000000
========================================================================================================

Time run:  50.000000 [ps]   0.050000 [ns] 
Net charge: 0 (F: 0, A: 0, C: 0)
Current Box:  25.00000   0.00000   0.00000 [A]   Average Box:  25.00000   0.00000   0.00000 [A]
               0.00000  25.00000   0.00000 [A]                  0.00000  25.00000   0.00000 [A]
               0.00000   0.00000  25.00000 [A]                  0.00000   0.00000  25.00000 [A]
Box-lengths:   25.00000  25.00000  25.00000 [A] Average:  25.00000  25.00000  25.00000 [A]
Box-angles:   90.00000  90.00000  90.00000 [degrees] Average:  90.00000  90.00000  90.00000 [degrees]
Volume: 15625.00000 [A^3] Average Volume: 15625.00000 [A^3]

Total linear momentum:       0.0000000000 [A]      -0.0000000000 [A]      -0.0000000000 [A]

Current Stress:  42.00940  -9.07234 -13.67128 [MPa]   Average Stress: -1286.06208 -353.88879  60.17406 [kPa]
                 -9.07234  -2.03366   0.14871 [MPa]                   -353.88879 -7644.45247 -114.88439 [kPa]
                -13.67128   0.14871 -56.90878 [MPa]                    60.17406 -114.88439 -8424.22805 [kPa]
Average pressure:   -5784.9141972656 [kPa]     -57.0926641724 [atm]     -57.8491419727 [bar]

Amount of molecules per component:
----------------------------------------------------------------------------------------------------------------------------------------------------
Component 0 (2-methylbutane), current number of integer/fractional/reaction molecules: 32/0/0 (average  32.00000/  0.00000), density: 245.36258 (average 245.36258) kg/m^3]
----------------------------------------------------------------------------------------------------------------------------------------------------
Degrees of freedom: 477 0 477 0
Number of Framework-atoms:      0
Number of Adsorbates:          32 (32 integer, 0 fractional, 0 reaction)
Number of Cations:              0 (0 integer, 0 fractional, 0 reaction)

Conserved energy:       62825.3483075641 Energy drifts:  0.0000521187           0.0000261903
Temperature:             289.360 (avg.  297.876), Translational (avg.  297.876), Rotational (avg.      nan)
Temperature Adsorbates:  289.360 (avg.  297.876), Translational (avg.  297.876), Rotational (avg.      nan)
Cell temperature:    0.000 (avg.    0.000)
Current total kinetic energy:             57380.1828736603 [K]
Current total Nose-Hoover energy:          -358.8986321451 [K]
Current total potential energy:             -5755.5349940763 [K]  (avg.       -2706.9460708525)
	Current Host-Host energy:                     0.0000000000 [K]  (avg.           0.0000000000)
	Current Host-Adsorbate energy:                0.0000000000 [K]  (avg.           0.0000000000)
	Current Host-Cation energy:                   0.0000000000 [K]  (avg.           0.0000000000)
[...]
	------------------------------------------------------------------------------
	Average              0.00000 [K] +/-            0.00000 [K]

Average Cation Bend angle inversion energy:
===========================================
	Block[ 0]            0.00000 [K]
	Block[ 1]            0.00000 [K]
	Block[ 2]            0.00000 [K]
	Block[ 3]            0.00000 [K]
	Block[ 4]            0.00000 [K]
	------------------------------------------------------------------------------
	Average              0.00000 [K] +/-            0.00000 [K]

Average Cation Torsion energy:
==============================
	Block[ 0]            0.00000 [K]
	Block[ 1]            0.00000 [K]
	Block[ 2]            0.00000 [K]
	Block[ 3]            0.00000 [K]
	Block[ 4]            0.00000 [K]
	------------------------------------------------------------------------------
	Average              0.00000 [K] +/-            0.00000 [K]

Average Cation Improper Torsion energy:
=======================================
	Block[ 0]            0.00000 [K]
	Block[ 1]            0.00000 [K]
	Block[ 2]            0.00000 [K]
	Block[ 3]            0.00000 [K]
	Block[ 4]            0.00000 [K]
	------------------------------------------------------------------------------
	Average              0.00000 [K] +/-            0.00000 [K]

Average Cation Bond-Bond cross term energy:
=================================================
	Block[ 0]            0.00000 [K]
	Block[ 1]            0.00000 [K]
	Block[ 2]            0.00000 [K]
	Block[ 3]            0.00000 [K]
	Block[ 4]            0.00000 [K]
	------------------------------------------------------------------------------
	Average              0.00000 [K] +/-            0.00000 [K]

Average Cation Bend-Bend cross term energy:
===========================================
	Block[ 0]            0.00000 [K]
	Block[ 1]            0.00000 [K]
	Block[ 2]            0.00000 [K]
	Block[ 3]            0.00000 [K]
	Block[ 4]            0.00000 [K]
	------------------------------------------------------------------------------
	Average              0.00000 [K] +/-            0.00000 [K]

Average Cation Bond-Bend cross term energy:
==============================================
	Block[ 0]            0.00000 [K]
	Block[ 1]            0.00000 [K]
	Block[ 2]            0.00000 [K]
	Block[ 3]            0.00000 [K]
	Block[ 4]            0.00000 [K]
	------------------------------------------------------------------------------
	Average              0.00000 [K] +/-            0.00000 [K]

Average Cation Bond-Torsion cross term energy:
==============================================
	Block[ 0]            0.00000 [K]
	Block[ 1]            0.00000 [K]
	Block[ 2]            0.00000 [K]
	Block[ 3]            0.00000 [K]
	Block[ 4]            0.00000 [K]
	------------------------------------------------------------------------------
	Average              0.00000 [K] +/-            0.00000 [K]

Average Cation Bend-Torsion cross term energy:
==============================================
	Block[ 0]            0.00000 [K]
	Block[ 1]            0.00000 [K]
	Block[ 2]            0.00000 [K]
	Block[ 3]            0.00000 [K]
	Block[ 4]            0.00000 [K]
	------------------------------------------------------------------------------
	Average              0.00000 [K] +/-            0.00000 [K]

Average Cation Intra Van der Waals energy:
==========================================
	Block[ 0]            0.00000 [K]
	Block[ 1]            0.00000 [K]
	Block[ 2]            0.00000 [K]
	Block[ 3]            0.00000 [K]
	Block[ 4]            0.00000 [K]
	------------------------------------------------------------------------------
	Average              0.00000 [K] +/-            0.00000 [K]

Average Cation Intra charge-charge Coulomb energy:
====================================
	Block[ 0]            0.00000 [K]
	Block[ 1]            0.00000 [K]
	Block[ 2]            0.00000 [K]
	Block[ 3]            0.00000 [K]
	Block[ 4]            0.00000 [K]
	------------------------------------------------------------------------------
	Average              0.00000 [K] +/-            0.00000 [K]

Average Cation Intra charge-bonddipole Coulomb energy:
====================================
	Block[ 0]            0.00000 [K]
	Block[ 1]            0.00000 [K]
	Block[ 2]            0.00000 [K]
	Block[ 3]            0.00000 [K]
	Block[ 4]            0.00000 [K]
	------------------------------------------------------------------------------
	Average              0.00000 [K] +/-            0.00000 [K]

Average Cation Intra bonddipole-bonddipole Coulomb energy:
====================================
	Block[ 0]            0.00000 [K]
	Block[ 1]            0.00000 [K]
	Block[ 2]            0.00000 [K]
	Block[ 3]            0.00000 [K]
	Block[ 4]            0.00000 [K]
	------------------------------------------------------------------------------
	Average              0.00000 [K] +/-            0.00000 [K]

Average Host-Host energy:
=========================
	Block[ 0] 0.00000            Van der Waals: 0.00000            Coulomb: 0.00000            [K]
	Block[ 1] 0.00000            Van der Waals: 0.00000            Coulomb: 0.00000            [K]
	Block[ 2] 0.00000            Van der Waals: 0.00000            Coulomb: 0.00000            [K]
	Block[ 3] 0.00000            Van der Waals: 0.00000            Coulomb: 0.00000            [K]
	Block[ 4] 0.00000            Van der Waals: 0.00000            Coulomb: 0.00000            [K]
	------------------------------------------------------------------------------
	Average   0.00000            Van der Waals: 0.000000           Coulomb: 0.00000            [K]
	      +/- 0.00000                       +/- 0.000000                +/- 0.00000            [K]

Average Adsorbate-Adsorbate energy:
===================================
	Block[ 0] -47114.67090       Van der Waals: -47114.67090       Coulomb: 0.00000            [K]
	Block[ 1] -48100.68664       Van der Waals: -48100.68664       Coulomb: 0.00000            [K]
	Block[ 2] -46897.19330       Van der Waals: -46897.19330       Coulomb: 0.00000            [K]
	Block[ 3] -46986.03033       Van der Waals: -46986.03033       Coulomb: 0.00000            [K]
	Block[ 4] -48533.80223       Van der Waals: -48533.80223       Coulomb: 0.00000            [K]
	------------------------------------------------------------------------------
	Average   -47526.47668       Van der Waals: -47526.476678      Coulomb: 0.00000            [K]
	      +/- 921.13136                     +/- 921.131364              +/- 0.00000            [K]

Average Cation-Cation energy:
=============================
	Block[ 0] 0.00000            Van der Waals: 0.00000            Coulomb: 0.00000            [K]
	Block[ 1] 0.00000            Van der Waals: 0.00000            Coulomb: 0.00000            [K]
	Block[ 2] 0.00000            Van der Waals: 0.00000            Coulomb: 0.00000            [K]
	Block[ 3] 0.00000            Van der Waals: 0.00000            Coulomb: 0.00000            [K]
	Block[ 4] 0.00000            Van der Waals: 0.00000            Coulomb: 0.00000            [K]
	------------------------------------------------------------------------------
	Average   0.00000            Van der Waals: 0.000000           Coulomb: 0.00000            [K]
	      +/- 0.00000                       +/- 0.000000                +/- 0.00000            [K]

Average Host-Adsorbate energy:
==============================
	Block[ 0] 0.00000            Van der Waals: 0.00000            Coulomb: 0.00000            [K]
	Block[ 1] 0.00000            Van der Waals: 0.00000            Coulomb: 0.00000            [K]
	Block[ 2] 0.00000            Van der Waals: 0.00000            Coulomb: 0.00000            [K]
	Block[ 3] 0.00000            Van der Waals: 0.00000            Coulomb: 0.00000            [K]
	Block[ 4] 0.00000            Van der Waals: 0.00000            Coulomb: 0.00000            [K]
	------------------------------------------------------------------------------
	Average   0.00000            Van der Waals: 0.000000           Coulomb: 0.00000            [K]
	      +/- 0.00000                       +/- 0.000000                +/- 0.00000            [K]

Average Host-Cation energy:
===========================
	Block[ 0] 0.00000            Van der Waals: 0.00000            Coulomb: 0.00000            [K]
	Block[ 1] 0.00000            Van der Waals: 0.00000            Coulomb: 0.00000            [K]
	Block[ 2] 0.00000            Van der Waals: 0.00000            Coulomb: 0.00000            [K]
	Block[ 3] 0.00000            Van der Waals: 0.00000            Coulomb: 0.00000            [K]
	Block[ 4] 0.00000            Van der Waals: 0.00000            Coulomb: 0.00000            [K]
	------------------------------------------------------------------------------
	Average   0.00000            Van der Waals: 0.000000           Coulomb: 0.00000            [K]
	      +/- 0.00000                       +/- 0.000000                +/- 0.00000            [K]

Average Adsorbate-Cation energy:
================================
	Block[ 0] 0.00000            Van der Waals: 0.00000            Coulomb: 0.00000            [K]
	Block[ 1] 0.00000            Van der Waals: 0.00000            Coulomb: 0.00000            [K]
	Block[ 2] 0.00000            Van der Waals: 0.00000            Coulomb: 0.00000            [K]
	Block[ 3] 0.00000            Van der Waals: 0.00000            Coulomb: 0.00000            [K]
	Block[ 4] 0.00000            Van der Waals: 0.00000            Coulomb: 0.00000            [K]
	------------------------------------------------------------------------------
	Average   0.00000            Van der Waals: 0.000000           Coulomb: 0.00000            [K]
	      +/- 0.00000                       +/- 0.000000                +/- 0.00000            [K]

Host polarization energy:
=======================
	Block[ 0]            0.00000 [K]
	Block[ 1]            0.00000 [K]
	Block[ 2]            0.00000 [K]
	Block[ 3]            0.00000 [K]
	Block[ 4]            0.00000 [K]
	------------------------------------------------------------------------------
	Average              0.00000 [K] +/-            0.00000 [K]

Adsorbate polarization energy:
=======================
	Block[ 0]            0.00000 [K]
	Block[ 1]            0.00000 [K]
	Block[ 2]            0.00000 [K]
	Block[ 3]            0.00000 [K]
	Block[ 4]            0.00000 [K]
	------------------------------------------------------------------------------
	Average              0.00000 [K] +/-            0.00000 [K]

Cation polarization energy:
=======================
	Block[ 0]            0.00000 [K]
	Block[ 1]            0.00000 [K]
	Block[ 2]            0.00000 [K]
	Block[ 3]            0.00000 [K]
	Block[ 4]            0.00000 [K]
	------------------------------------------------------------------------------
	Average              0.00000 [K] +/-            0.00000 [K]

Host back-polarization energy:
=======================
	Block[ 0]            0.00000 [K]
	Block[ 1]            0.00000 [K]
	Block[ 2]            0.00000 [K]
	Block[ 3]            0.00000 [K]
	Block[ 4]            0.00000 [K]
	------------------------------------------------------------------------------
	Average              0.00000 [K] +/-            0.00000 [K]

Adsorbate back-polarization energy:
=======================
	Block[ 0]            0.00000 [K]
	Block[ 1]            0.00000 [K]
	Block[ 2]            0.00000 [K]
	Block[ 3]            0.00000 [K]
	Block[ 4]            0.00000 [K]
	------------------------------------------------------------------------------
	Average              0.00000 [K] +/-            0.00000 [K]

Cation back-polarization energy:
=======================
	Block[ 0]            0.00000 [K]
	Block[ 1]            0.00000 [K]
	Block[ 2]            0.00000 [K]
	Block[ 3]            0.00000 [K]
	Block[ 4]            0.00000 [K]
	------------------------------------------------------------------------------
	Average              0.00000 [K] +/-            0.00000 [K]

Tail-correction energy:
=======================
	Block[ 0]            0.00000 [K]
	Block[ 1]            0.00000 [K]
	Block[ 2]            0.00000 [K]
	Block[ 3]            0.00000 [K]
	Block[ 4]            0.00000 [K]
	------------------------------------------------------------------------------
	Average              0.00000 [K] +/-            0.00000 [K]

Distance-constraints energy:
=======================
	Block[ 0]            0.00000 [K]
	Block[ 1]            0.00000 [K]
	Block[ 2]            0.00000 [K]
	Block[ 3]            0.00000 [K]
	Block[ 4]            0.00000 [K]
	------------------------------------------------------------------------------
	Average              0.00000 [K] +/-            0.00000 [K]

Angle-constraints energy:
=======================
	Block[ 0]            0.00000 [K]
	Block[ 1]            0.00000 [K]
	Block[ 2]            0.00000 [K]
	Block[ 3]            0.00000 [K]
	Block[ 4]            0.00000 [K]
	------------------------------------------------------------------------------
	Average              0.00000 [K] +/-            0.00000 [K]

Dihedral-constraints energy:
=======================
	Block[ 0]            0.00000 [K]
	Block[ 1]            0.00000 [K]
	Block[ 2]            0.00000 [K]
	Block[ 3]            0.00000 [K]
	Block[ 4]            0.00000 [K]
	------------------------------------------------------------------------------
	Average              0.00000 [K] +/-            0.00000 [K]

Inversion-bend constraints energy:
=======================
	Block[ 0]            0.00000 [K]
	Block[ 1]            0.00000 [K]
	Block[ 2]            0.00000 [K]
	Block[ 3]            0.00000 [K]
	Block[ 4]            0.00000 [K]
	------------------------------------------------------------------------------
	Average              0.00000 [K] +/-            0.00000 [K]

Out-of-plane-distance constraints energy:
=======================
	Block[ 0]            0.00000 [K]
	Block[ 1]            0.00000 [K]
	Block[ 2]            0.00000 [K]
	Block[ 3]            0.00000 [K]
	Block[ 4]            0.00000 [K]
	------------------------------------------------------------------------------
	Average              0.00000 [K] +/-            0.00000 [K]

Exclusion-constraints energy:
=======================
	Block[ 0]            0.00000 [K]
	Block[ 1]            0.00000 [K]
	Block[ 2]            0.00000 [K]
	Block[ 3]            0.00000 [K]
	Block[ 4]            0.00000 [K]
	------------------------------------------------------------------------------
	Average              0.00000 [K] +/-            0.00000 [K]

Total energy:
=============
	Block[ 0]        -2159.19485 [K]
	Block[ 1]        -2601.85821 [K]
	Block[ 2]        -2090.58925 [K]
	Block[ 3]        -2096.70218 [K]
	Block[ 4]        -2849.12584 [K]
	------------------------------------------------------------------------------
	Average          -2359.49407 [K] +/-          430.04209 [K]

Number of molecules:
====================

Component 0 [2-methylbutane]
-------------------------------------------------------------
	Block[ 0] 32.00000           [-]
	Block[ 1] 32.00000           [-]
	Block[ 2] 32.00000           [-]
	Block[ 3] 32.00000           [-]
	Block[ 4] 32.00000           [-]
	------------------------------------------------------------------------------
	Average loading absolute                             32.0000000000 +/-       0.0000000000 [-]
	Average loading absolute [molecules/unit cell]       32.0000000000 +/-       0.0000000000 [-]
	Average loading absolute [mol/kg framework]                           inf +/-                nan [-]
	Average loading absolute [milligram/gram framework]                   inf +/-                nan [-]
	Average loading absolute [cm^3 (STP)/gr framework]                    inf +/-                nan [-]
	Average loading absolute [cm^3 (STP)/cm^3 framework]        76.2250746852 +/-       0.0000000000 [-]

	Block[ 0] 32.00000           [-]
	Block[ 1] 32.00000           [-]
	Block[ 2] 32.00000           [-]
	Block[ 3] 32.00000           [-]
	Block[ 4] 32.00000           [-]
	------------------------------------------------------------------------------
	Average loading excess                             32.0000000000 +/-       0.0000000000 [-]
	Average loading excess [molecules/unit cell]       32.0000000000 +/-       0.0000000000 [-]
	Average loading excess [mol/kg framework]                             inf +/-                nan [-]
	Average loading excess [milligram/gram framework]                     inf +/-                nan [-]
	Average loading excess [cm^3 (STP)/gr framework]                      inf +/-                nan [-]
	Average loading excess [cm^3 (STP)/cm^3 framework]          76.2250746852 +/-       0.0000000000 [-]


Average Widom Rosenbluth factor:
================================
	Block[ 0] 0 [-]
	Block[ 1] 0 [-]
	Block[ 2] 0 [-]
	Block[ 3] 0 [-]
	Block[ 4] 0 [-]
	------------------------------------------------------------------------------
	[2-methylbutane] Average Widom Rosenbluth-weight:   0 +/- 0.000000 [-]

Average Widom chemical potential:
=================================
	Block[ 0] 0 [-]
	Block[ 1] 0 [-]
	Block[ 2] 0 [-]
	Block[ 3] 0 [-]
	Block[ 4] 0 [-]
	------------------------------------------------------------------------------
	[2-methylbutane] Average chemical potential:   0 +/- 0.000000 [K]

Average Widom Ideal-gas contribution:
=====================================
	Block[ 0] 0 [-]
	Block[ 1] 0 [-]
	Block[ 2] 0 [-]
	Block[ 3] 0 [-]
	Block[ 4] 0 [-]
	------------------------------------------------------------------------------
	[2-methylbutane] Average Widom Ideal-gas chemical potential:   0 +/- 0.000000 [-]

Average Widom excess contribution:
==================================
	Block[ 0] 0 [-]
	Block[ 1] 0 [-]
	Block[ 2] 0 [-]
	Block[ 3] 0 [-]
	Block[ 4] 0 [-]
	------------------------------------------------------------------------------
	[2-methylbutane] Average Widom excess chemical potential:   0 +/- 0.000000 [-]

Average Gibbs Widom Rosenbluth factor:
======================================
	Block[ 0] 0 [-]
	Block[ 1] 0 [-]
	Block[ 2] 0 [-]
	Block[ 3] 0 [-]
	Block[ 4] 0 [-]
	------------------------------------------------------------------------------
	[2-methylbutane] Average Gibbs Widom Rosenbluth-weight:   0 +/- 0.000000 [-]

Average Gibbs Widom chemical potential:
=======================================
	Block[ 0] 0 [-]
	Block[ 1] 0 [-]
	Block[ 2] 0 [-]
	Block[ 3] 0 [-]
	Block[ 4] 0 [-]
	------------------------------------------------------------------------------
	[2-methylbutane] Average Gibbs chemical potential:   0 +/- 0.000000 [K]

Average Gibbs Widom Ideal-gas contribution:
===========================================
	Block[ 0] 0 [-]
	Block[ 1] 0 [-]
	Block[ 2] 0 [-]
	Block[ 3] 0 [-]
	Block[ 4] 0 [-]
	------------------------------------------------------------------------------
	[2-methylbutane] Average Gibbs Ideal-gas chemical potential:   0 +/- 0.000000 [-]

Average Gibbs Widom excess contribution:
===========================================
	Block[ 0] 0 [-]
	Block[ 1] 0 [-]
	Block[ 2] 0 [-]
	Block[ 3] 0 [-]
	Block[ 4] 0 [-]
	------------------------------------------------------------------------------
	[2-methylbutane] Average Gibbs excess chemical potential:   0 +/- 0.000000 [-]

Average Henry coefficient:
==========================
	Block[ 0] 0 [mol/kg/Pa]
	Block[ 1] 0 [mol/kg/Pa]
	Block[ 2] 0 [mol/kg/Pa]
	Block[ 3] 0 [mol/kg/Pa]
	Block[ 4] 0 [mol/kg/Pa]
	------------------------------------------------------------------------------
	[2-methylbutane] Average Henry coefficient:  0 +/- 0 [mol/kg/Pa]

Average adsorption energy <U_gh>_1-<U_h>_0 obtained from Widom-insertion:
(Note: the total heat of adsorption is dH=<U_gh>_1-<U_h>_0 - <U_g> - RT)
=========================================================================

Simulation finished,  0 warnings


Tue May 18 15:56:43 2021
Simulation finished on Tuesday, May 18.
The end time was 03:56 PM.

