Compiler and run-time data
===========================================================================
RASPA 2.0.45
Compiled as a 64-bits application
Compiler: gcc Apple LLVM 12.0.5 (clang-1205.0.22.9)
Compile Date = May 18 2021, Compile Time = 12:54:12

Tue May 18 14:34:35 2021
Simulation started on Tuesday, May 18.
The start time was 02:34 PM.

Cpu data:    x86_64
Cpu Model:   MacPro7,1
Host name:   MacPro.local
OS release:  20.4.0
OS type:     Darwin
OS version:  20E232


Simulation
===========================================================================
Dimensions: 3
Random number seed: 1621341274
RASPA directory set to: /Users/dubbelda/RASPA/simulations/
String appended to output-files: 
Number of cycles: 500000
Number of initializing cycles: 1000
Number of equilibration cycles: 100000
Print every: 5000
Triclinic boundary condition applied
Timestep: 0.000500
Initialization Ensemble: NVT (constant number of particles N, constant volume V, constant average temperature T)
Production run ensemble: NVT (constant number of particles N, constant volume V, constant average temperature T)
	Degrees of freedom:                        96
	Translational Degrees of freedom:          48
	Rotational Degrees of freedom:             48
	Degrees of freedom Framework:              0


Mutual consistent basic set of units:
======================================
Unit of temperature: Kelvin
Unit of length:      1e-10 [m]
Unit of time:        1e-12 [s]
Unit of mass:        1.66054e-27 [kg]
Unit of charge:      1.60218e-19 [C/particle]

Derived units and their conversion factors:
===========================================
Unit of energy:              1.66054e-23 [J]
Unit of force:               1.66054e-13 [N]
Unit of pressure:            1.66054e+07 [Pa]
Unit of velocity:            100 [m/s]
Unit of acceleration:        1e-08 [m^2/s]
Unit of diffusion:           1e-08 [m^2/s]
Unit of dipole moment:       1.60218e-29 [C.m]
Unit of electric potential:  0.000103643 [V]
Unit of electric field:      1.03643e+06 [V]
Unit of polarizability:      1.54587e-35 [-]
Unit of Coulomb potential:   167101.0800066561  [K]
Unit of dielectric constant: 0.0000154587       [s^2 C^2/(kg m^3)]
Unit of wave vectors:        5.3088374589       [cm^1]
Boltzmann constant:          0.8314464919       [-]

Internal conversion factors:
===========================================
Energy to Kelvin:                                    1.2027242847
FH correction factor                                 2.0211930949
Heat capacity conversion factor:                    10.0000088723
From Debye to internal units:                        4.8032067991
Isothermal compressibility conversion factor:        0.0000000602

Energy conversion factors:
===========================================
From mdyne/A to kcal/mol/A^2:           143.933
From mdyne/A to kj/mol/A^2:             602.214
From mdyne/A to K/A^2:                  72429.7
From mdyne A/rad^2 to kcal/mol/deg^2:   0.0438444


Properties computed
===========================================================================
Movies: no
Radial Distribution Function: no
Number of molecules GCMC histogram: no
Histogram of the molecule positions: no
Free energy profiles: no
Pore Size Distribution Function: no
End-to-end distance: no
Histogram of the energy of the system: no
Compute thermodynamic factors: no
Framework spacing histograms: no
Residence times histograms: no
Distance histograms: no
Bend Angle histograms: no
Dihedral angle histograms: no
Angle between planes histograms: no
Molecule properties: no
Infra-red spectra: no
Mean-squared displacement using modified order-N algorithm: yes
	msd is sampled every 1 cycles
	msd is written to file every 5000 cycles
	the (initial) maximum number of blocks: 25
	the number of elements per block: 25
	the msd's are computed per component
Velocity-autocorrelation function modified order-N algorithm: no
Rotational velocity-autocorrelation function modified order-N algorithm: no
Molecular orientation-autocorrelation function modified order-N algorithm: no
Bond orientation-autocorrelation function modified order-N algorithm: no
Mean-squared displacement (conventional algorithm): no
Velocity-autocorrelation function (conventional algorithm): no
3D density grid for adsorbates: no
Compute cation an/or adsorption sites: no
dcTST snapshots: no
Compute pressure and stress: no


VTK
===========================================================================
VTK fractional-range position framework atoms: [-0.001000,1.001000] [-0.001000,1.001000] [-0.001000,1.001000]
VTK fractional-range position framework bonds: [-0.151000,1.151000] [-0.151000,1.151000] [-0.151000,1.151000]
VTK fractional-range com-position adsorbate molecules: [-0.101000,1.101000] [-0.101000,1.101000] [-0.101000,1.101000]
VTK fractional-range com-position cation molecules: [-0.101000,1.101000] [-0.101000,1.101000] [-0.101000,1.101000]
	3D free energy grid made for the full simulation-cell


Thermo/Baro-stat NHC parameters
===========================================================================
External temperature: 298 [K]
Beta: 0.00403598 [energy unit]
External Pressure: 0 [Pa]


Thermostat chain-length: 3
Timescale parameter for thermostat: 0.150000 [ps]
Barostat chain-length:   3
Timescale parameter for barostat:   0.150000 [ps]

Number of Yoshida-Suzuki decomposition steps: 5
Number of respa steps: 5


Method and settings for electrostatics
===============================================================================
Dielectric constant of the medium : 1.000000
Charge from charge-equilibration: no
Ewald summation is used (exact solution of a periodic system)
Relative precision                : 1e-06
Alpha convergence parameter       : 0.265058
kvec (x,y,z)                      : 7 7 7


CFC-RXMC parameters
===========================================================================
Number of reactions: 0


Rattle parameters
===========================================================================
Distance constraint type: r^2-r^2_0
Bend angle constraint type: theta-theta_0
Dihedral angle constraint type: phi-phi_0
Inversion-bend angle constraint type: chi-chi_0
Out-of-plane distance constraint type: r-r_0


Spectra parameters
===========================================================================
Compute normal modes: no


Minimization parameters
===========================================================================
Generalized coordinates are: Cartesian center-of-mass, elements of the orientational matrix p1,p2,p3 and strain
Potential derivatives are evaluated: analytically
Translation of the system is removed from the generalized Hessian: no
Rotation of the system is removed from the generalized Hessian: no
Maximum step-length: 0.3
Convergence factor: 1
Maximum number of minimization steps: 10000
Use gradients in the line-minimizations: yes
RMS gradient tolerance: 1e-06
Maximum gradient tolerance: 1e-06

Distance constraints: 0
Angle constraints: 0
Dihedral constraints: 0

Improper dihedral constraints: 0

Inversion-bend constraints: 0

Out-of-plane constraints: 0

Harmonic distance constraints: 0
Harmonic angle constraints: 0
Harmonic dihedral constraints: 0

Dihedral mid-point measurements: 0

All framework atoms are fixed

Fixed adsorbate atoms:  
Fixed adsorbate groups (center-of-mass):  
Fixed adsorbate groups (orientation):  

Fixed cation atoms:  
Fixed cation groups (center-of-mass):  
Fixed cation groups (orientation):  


dcTST parameters
===========================================================================
Free energy profiles computed: no
Free energy profiles written every 5000 cycles
Free energy mapping: mapped to a,b,c-coordinates
BarrierPosition:       0.0000000000       0.0000000000       0.0000000000
BarrierNormal:         0.0000000000       0.0000000000       0.0000000000
Start with a molecule on top of the barrier: no
Maximum distance to barrier (e.g. distance to minumum free energy):       0.0000000000 [A]
Maximum trajectory time:      10.0000000000 [ps]
Each configuration is used with 5 different initial velocities


Cbmc parameters
===========================================================================
Biasing method: using only the VDW part
Number of trial positions:                                       10
Number of trial positions (reinsertion):                         10
Number of trial positions (partial reinsertion):                 10
Number of trial positions (identity-change):                     10
Number of trial positions (Gibbs particle transfer):             10
Number of trial positions (insertion/deletion):                  10
Number of trial positions (Widom insertion):                     10
Number of trial positions coupled Torsion-selection:             100
Number of trial positions first bead:                            10
Number of trial positions first bead (reinsertion):              10
Number of trial positions first bead (partial reinsertion):      10
Number of trial positions first bead (identity-change):          10
Number of trial positions first bead (Gibbs particle transfer):  10
Number of trial positions first bead (insertion/deletion):       10
Number of trial positions first bead (Widom insertion):          10
Number of trial moves per open bead:                             150
Target acceptance ratio small-mc scheme:                         0.400000
Energy overlap criteria:                                         1e+07
Minimal Rosenbluth factor:                                       1e-150


Pseudo atoms: 10
===========================================================================
Pseudo Atom[   0] Name UNIT     Oxidation:          Element: H    pdb-name: H    Scat. Types:   1   1 Mass=1.000000000  B-factor:0.000   
                 Charge=1.000000000          Polarization=0.000000000  [A^3] (considered a charged atom and no polarization)  Interactions: yes
                 Anisotropic factor:    0.000 [-] (Absolute), Radius:    1.000 [A], Framework-atom:  no
Pseudo Atom[   1] Name Zn1      Oxidation: +0       Element: Zn   pdb-name: Zn   Scat. Types:  31  30 Mass=65.370000000 B-factor:1.000   
                 Charge=1.275000000          Polarization=0.000000000  [A^3] (considered a charged atom and no polarization)  Interactions: yes
                 Anisotropic factor:    0.000 [-] (Relative), Radius:    1.600 [A], Framework-atom: yes (charge from pseudo-atoms file)
Pseudo Atom[   2] Name O1       Oxidation: +0       Element: O    pdb-name: O    Scat. Types:   9   8 Mass=15.999400000 B-factor:1.000   
                 Charge=-1.500000000         Polarization=0.000000000  [A^3] (considered a charged atom and no polarization)  Interactions: yes
                 Anisotropic factor:    0.000 [-] (Relative), Radius:    0.680 [A], Framework-atom: yes (charge from pseudo-atoms file)
Pseudo Atom[   3] Name O2       Oxidation: +0       Element: O    pdb-name: O    Scat. Types:   9   8 Mass=15.999400000 B-factor:1.000   
                 Charge=-0.600000000         Polarization=0.000000000  [A^3] (considered a charged atom and no polarization)  Interactions: yes
                 Anisotropic factor:    0.000 [-] (Relative), Radius:    0.680 [A], Framework-atom: yes (charge from pseudo-atoms file)
Pseudo Atom[   4] Name C1       Oxidation: +0       Element: C    pdb-name: C    Scat. Types:   7   6 Mass=12.010700000 B-factor:1.000   
                 Charge=0.475000000          Polarization=0.000000000  [A^3] (considered a charged atom and no polarization)  Interactions: yes
                 Anisotropic factor:    0.000 [-] (Relative), Radius:    0.720 [A], Framework-atom: yes (charge from pseudo-atoms file)
Pseudo Atom[   5] Name C2       Oxidation: +0       Element: C    pdb-name: C    Scat. Types:   7   6 Mass=12.010700000 B-factor:1.000   
                 Charge=0.125000000          Polarization=0.000000000  [A^3] (considered a charged atom and no polarization)  Interactions: yes
                 Anisotropic factor:    0.000 [-] (Relative), Radius:    0.720 [A], Framework-atom: yes (charge from pseudo-atoms file)
Pseudo Atom[   6] Name C3       Oxidation: +0       Element: C    pdb-name: C    Scat. Types:   7   6 Mass=12.010700000 B-factor:1.000   
                 Charge=-0.150000000         Polarization=0.000000000  [A^3] (considered a charged atom and no polarization)  Interactions: yes
                 Anisotropic factor:    0.000 [-] (Relative), Radius:    0.720 [A], Framework-atom: yes (charge from pseudo-atoms file)
Pseudo Atom[   7] Name H1       Oxidation: +0       Element: H    pdb-name: H    Scat. Types:   1   1 Mass=1.007940000  B-factor:1.000   
                 Charge=0.150000000          Polarization=0.000000000  [A^3] (considered a charged atom and no polarization)  Interactions: yes
                 Anisotropic factor:    0.000 [-] (Relative), Radius:    0.320 [A], Framework-atom: yes (charge from pseudo-atoms file)
Pseudo Atom[   8] Name C_benz   Oxidation: +0       Element: C    pdb-name: C    Scat. Types:   7   6 Mass=12.000000000 B-factor:1.000   
                 Charge=-0.095000000         Polarization=0.000000000  [A^3] (considered a charged atom and no polarization)  Interactions: yes
                 Anisotropic factor:    0.000 [-] (Relative), Radius:    0.700 [A], Framework-atom:  no
Pseudo Atom[   9] Name H_benz   Oxidation: +0       Element: H    pdb-name: H    Scat. Types:   1   1 Mass=1.007940000  B-factor:1.000   
                 Charge=0.095000000          Polarization=0.000000000  [A^3] (considered a charged atom and no polarization)  Interactions: yes
                 Anisotropic factor:    0.000 [-] (Relative), Radius:    0.320 [A], Framework-atom:  no


Forcefield: Local
===========================================================================
Minimal distance: 1
CutOff VDW : 12.000000 (144.000000)
CutOff VDW switching on: 10.800000 (116.640000)
CutOff charge-charge : 12.000000 (144.000000)
CutOff charge-charge switching on: 7.800000 (60.840000)
CutOff charge-bonddipole : 12.000000 (144.000000)
CutOff charge-bondipole switching on: 8.400000 (70.560000)
CutOff bonddipole-bonddipole : 12.000000 (144.000000)
CutOff bonddipole-bondipole switching on: 9.000000 (81.000000)
Polarization is neglected
All potentials are shifted to zero at the Cutoff

General mixing rule: Lorentz-Berthelot mixing rules are used FIRST for cross terms
0 cross terms are overwritten using the individual mixing rules from the file 'force_field_mixing_rules.def'
and then 0 terms are overwritten using the specific interactions from the file 'force_field.def'

The force field and all the interactions:
    Zn1 -     Zn1 [LENNARD_JONES] p_0/k_B:   0.42000 [K], p_1: 2.70000 [A], shift/k_B:  -0.00021795 [K], tailcorrection: no
    Zn1 -      O1 [LENNARD_JONES] p_0/k_B:  17.14643 [K], p_1: 2.84000 [A], shift/k_B:  -0.01204980 [K], tailcorrection: no
    Zn1 -      O2 [LENNARD_JONES] p_0/k_B:   5.44151 [K], p_1: 2.90500 [A], shift/k_B:  -0.00438007 [K], tailcorrection: no
    Zn1 -      C1 [LENNARD_JONES] p_0/k_B:   4.44297 [K], p_1: 3.22000 [A], shift/k_B:  -0.00663161 [K], tailcorrection: no
    Zn1 -      C2 [LENNARD_JONES] p_0/k_B:   4.48344 [K], p_1: 3.08500 [A], shift/k_B:  -0.00517594 [K], tailcorrection: no
    Zn1 -      C3 [LENNARD_JONES] p_0/k_B:   4.48344 [K], p_1: 3.08500 [A], shift/k_B:  -0.00517594 [K], tailcorrection: no
    Zn1 -      H1 [LENNARD_JONES] p_0/k_B:   1.79248 [K], p_1: 2.77500 [A], shift/k_B:  -0.00109633 [K], tailcorrection: no
    Zn1 -  C_benz [LENNARD_JONES] p_0/k_B:   3.59082 [K], p_1: 3.15000 [A], shift/k_B:  -0.00469772 [K], tailcorrection: no
    Zn1 -  H_benz [LENNARD_JONES] p_0/k_B:   3.26940 [K], p_1: 2.53000 [A], shift/k_B:  -0.00114849 [K], tailcorrection: no
     O1 -      O1 [LENNARD_JONES] p_0/k_B: 700.00000 [K], p_1: 2.98000 [A], shift/k_B:  -0.65654768 [K], tailcorrection: no
     O1 -      O2 [LENNARD_JONES] p_0/k_B: 222.14860 [K], p_1: 3.04500 [A], shift/k_B:  -0.23715043 [K], tailcorrection: no
     O1 -      C1 [LENNARD_JONES] p_0/k_B: 181.38357 [K], p_1: 3.36000 [A], shift/k_B:  -0.34945946 [K], tailcorrection: no
     O1 -      C2 [LENNARD_JONES] p_0/k_B: 183.03552 [K], p_1: 3.22500 [A], shift/k_B:  -0.27575445 [K], tailcorrection: no
     O1 -      C3 [LENNARD_JONES] p_0/k_B: 183.03552 [K], p_1: 3.22500 [A], shift/k_B:  -0.27575445 [K], tailcorrection: no
     O1 -      H1 [LENNARD_JONES] p_0/k_B:  73.17787 [K], p_1: 2.91500 [A], shift/k_B:  -0.06013044 [K], tailcorrection: no
     O1 -  C_benz [LENNARD_JONES] p_0/k_B: 146.59468 [K], p_1: 3.29000 [A], shift/k_B:  -0.24893251 [K], tailcorrection: no
     O1 -  H_benz [LENNARD_JONES] p_0/k_B: 133.47284 [K], p_1: 2.67000 [A], shift/k_B:  -0.06477095 [K], tailcorrection: no
     O2 -      O2 [LENNARD_JONES] p_0/k_B:  70.50000 [K], p_1: 3.11000 [A], shift/k_B:  -0.08542645 [K], tailcorrection: no
     O2 -      C1 [LENNARD_JONES] p_0/k_B:  57.56301 [K], p_1: 3.42500 [A], shift/k_B:  -0.12440694 [K], tailcorrection: no
     O2 -      C2 [LENNARD_JONES] p_0/k_B:  58.08726 [K], p_1: 3.29000 [A], shift/k_B:  -0.09863801 [K], tailcorrection: no
     O2 -      C3 [LENNARD_JONES] p_0/k_B:  58.08726 [K], p_1: 3.29000 [A], shift/k_B:  -0.09863801 [K], tailcorrection: no
     O2 -      H1 [LENNARD_JONES] p_0/k_B:  23.22337 [K], p_1: 2.98000 [A], shift/k_B:  -0.02178179 [K], tailcorrection: no
     O2 -  C_benz [LENNARD_JONES] p_0/k_B:  46.52258 [K], p_1: 3.35500 [A], shift/k_B:  -0.08883497 [K], tailcorrection: no
     O2 -  H_benz [LENNARD_JONES] p_0/k_B:  42.35829 [K], p_1: 2.73500 [A], shift/k_B:  -0.02374620 [K], tailcorrection: no
     C1 -      C1 [LENNARD_JONES] p_0/k_B:  47.00000 [K], p_1: 3.74000 [A], shift/k_B:  -0.17214791 [K], tailcorrection: no
     C1 -      C2 [LENNARD_JONES] p_0/k_B:  47.42805 [K], p_1: 3.60500 [A], shift/k_B:  -0.13935419 [K], tailcorrection: no
     C1 -      C3 [LENNARD_JONES] p_0/k_B:  47.42805 [K], p_1: 3.60500 [A], shift/k_B:  -0.13935419 [K], tailcorrection: no
     C1 -      H1 [LENNARD_JONES] p_0/k_B:  18.96180 [K], p_1: 3.29500 [A], shift/k_B:  -0.03249365 [K], tailcorrection: no
     C1 -  C_benz [LENNARD_JONES] p_0/k_B:  37.98552 [K], p_1: 3.67000 [A], shift/k_B:  -0.12423143 [K], tailcorrection: no
     C1 -  H_benz [LENNARD_JONES] p_0/k_B:  34.58540 [K], p_1: 3.05000 [A], shift/k_B:  -0.03728613 [K], tailcorrection: no
     C2 -      C2 [LENNARD_JONES] p_0/k_B:  47.86000 [K], p_1: 3.47000 [A], shift/k_B:  -0.11185826 [K], tailcorrection: no
     C2 -      C3 [LENNARD_JONES] p_0/k_B:  47.86000 [K], p_1: 3.47000 [A], shift/k_B:  -0.11185826 [K], tailcorrection: no
     C2 -      H1 [LENNARD_JONES] p_0/k_B:  19.13450 [K], p_1: 3.16000 [A], shift/k_B:  -0.02551334 [K], tailcorrection: no
     C2 -  C_benz [LENNARD_JONES] p_0/k_B:  38.33148 [K], p_1: 3.53500 [A], shift/k_B:  -0.10013379 [K], tailcorrection: no
     C2 -  H_benz [LENNARD_JONES] p_0/k_B:  34.90039 [K], p_1: 2.91500 [A], shift/k_B:  -0.02867774 [K], tailcorrection: no
     C3 -      C3 [LENNARD_JONES] p_0/k_B:  47.86000 [K], p_1: 3.47000 [A], shift/k_B:  -0.11185826 [K], tailcorrection: no
     C3 -      H1 [LENNARD_JONES] p_0/k_B:  19.13450 [K], p_1: 3.16000 [A], shift/k_B:  -0.02551334 [K], tailcorrection: no
     C3 -  C_benz [LENNARD_JONES] p_0/k_B:  38.33148 [K], p_1: 3.53500 [A], shift/k_B:  -0.10013379 [K], tailcorrection: no
     C3 -  H_benz [LENNARD_JONES] p_0/k_B:  34.90039 [K], p_1: 2.91500 [A], shift/k_B:  -0.02867774 [K], tailcorrection: no
     H1 -      H1 [LENNARD_JONES] p_0/k_B:   7.65000 [K], p_1: 2.85000 [A], shift/k_B:  -0.00549067 [K], tailcorrection: no
     H1 -  C_benz [LENNARD_JONES] p_0/k_B:  15.32498 [K], p_1: 3.22500 [A], shift/k_B:  -0.02308804 [K], tailcorrection: no
     H1 -  H_benz [LENNARD_JONES] p_0/k_B:  13.95323 [K], p_1: 2.60500 [A], shift/k_B:  -0.00584047 [K], tailcorrection: no
 C_benz -  C_benz [LENNARD_JONES] p_0/k_B:  30.70000 [K], p_1: 3.60000 [A], shift/k_B:  -0.08945594 [K], tailcorrection: no
 C_benz -  H_benz [LENNARD_JONES] p_0/k_B:  27.95201 [K], p_1: 2.98000 [A], shift/k_B:  -0.02621690 [K], tailcorrection: no
 H_benz -  H_benz [LENNARD_JONES] p_0/k_B:  25.45000 [K], p_1: 2.36000 [A], shift/k_B:  -0.00588989 [K], tailcorrection: no


MoleculeDefinitions:
===========================================================================
Component 0 [benzene] (Adsorbate molecule)

	MoleculeDefinitions: Local
	Component contains (at least some) atoms which are charged
	Component contains no atoms with point dipoles (polarization)
	Component has a net charge of 0.000000

	Ideal chain Rosenbluth weight: 1
	Ideal chain total energy: 0.000000

	Critical temparure [K]: 562.050000
	Critical pressure [Pa]: 4894000.000000
	Acentric factor [-]: 0.209200

	RXMC partition factor ln(q/V) [ln(A^(-3))]:       0.0000000000

	Vapour=stable, Liquid=metastable

	MolFraction:           1.0000000000 [-]
	Compressibility:       0.0000000000 [-]

	Density of the bulk fluid phase:       0.0000000000 [kg/m^3]


	Amount of excess molecules:       0.0000000000 [-]

	Conversion factor molecules/unit cell -> mol/kg:       0.1623747175 [-]
	Conversion factor molecules/unit cell -> mg/g:      12.6729634976 [-]
	Conversion factor molecules/unit cell -> cm^3 STP/gr:       3.6394629804 [-]
	Conversion factor molecules/unit cell -> cm^3 STP/cm^3:       2.1592046669 [-]
	Conversion factor mol/kg -> cm^3 STP/gr:      22.4139757476 [-]
	Conversion factor mol/kg -> cm^3 STP/cm^3:      13.2976654244 [-]

	Partial pressure: -16605402.00000000000000 [Pa]
	                    -124540.51499999999942 [Torr]
	                       -166.05402000000001 [bar]
	                       -163.88257586972614 [atm]

	Fugacity coefficient:      -1.0000000000 [-]

	Partial fugacity:  16605402.00000000000000 [Pa]
	                     124540.51499999999942 [Torr]
	                        166.05402000000001 [bar]
	                        163.88257586972614 [atm]

	Molecule contains 12 number of atoms
		atom:    0  is of type:    8 [    C_benz] (group: 0)
		atom:    1  is of type:    8 [    C_benz] (group: 0)
		atom:    2  is of type:    8 [    C_benz] (group: 0)
		atom:    3  is of type:    8 [    C_benz] (group: 0)
		atom:    4  is of type:    8 [    C_benz] (group: 0)
		atom:    5  is of type:    8 [    C_benz] (group: 0)
		atom:    6  is of type:    9 [    H_benz] (group: 0)
		atom:    7  is of type:    9 [    H_benz] (group: 0)
		atom:    8  is of type:    9 [    H_benz] (group: 0)
		atom:    9  is of type:    9 [    H_benz] (group: 0)
		atom:   10  is of type:    9 [    H_benz] (group: 0)
		atom:   11  is of type:    9 [    H_benz] (group: 0)

	Molecule contains 0 chirality centers

	Molecule contains 1 number of groups

		group: 0 containing: 12 elements
		-------------------------------------------------
		the group is rigid and nonlinear
		Mass: 78.047640 [a.u.]
		Mass: 7.518563 [kg/m^3]

		Rotational Degrees of freedom: 3
		Diagonalized inertia vector:     176.4676545231
		                                  88.2338325899
		                                  88.2338297934
		number of atoms: 12
			element: 0 atom: 0 [    C_benz] Charge: -0.095000 Anisotropy: 0.000000 Position:  0.000016 -0.133163  1.385616 Connectivity: 3 (1 5 6 )
			element: 1 atom: 1 [    C_benz] Charge: -0.095000 Anisotropy: 0.000000 Position: -0.000328 -1.266560  0.577485 Connectivity: 3 (0 2 7 )
			element: 2 atom: 2 [    C_benz] Charge: -0.095000 Anisotropy: 0.000000 Position:  0.000233 -1.133397 -0.808131 Connectivity: 3 (1 3 8 )
			element: 3 atom: 3 [    C_benz] Charge: -0.095000 Anisotropy: 0.000000 Position: -0.000059  0.133163 -1.385616 Connectivity: 3 (2 4 9 )
			element: 4 atom: 4 [    C_benz] Charge: -0.095000 Anisotropy: 0.000000 Position: -0.000194  1.266561 -0.577485 Connectivity: 3 (3 5 10 )
			element: 5 atom: 5 [    C_benz] Charge: -0.095000 Anisotropy: 0.000000 Position:  0.000240  1.133397  0.808131 Connectivity: 3 (0 4 11 )
			element: 6 atom: 6 [    H_benz] Charge:  0.095000 Anisotropy: 0.000000 Position:  0.000023 -0.236480  2.460663 Connectivity: 1 (0 )
			element: 7 atom: 7 [    H_benz] Charge:  0.095000 Anisotropy: 0.000000 Position:  0.000262 -2.249236  1.025534 Connectivity: 1 (1 )
			element: 8 atom: 8 [    H_benz] Charge:  0.095000 Anisotropy: 0.000000 Position:  0.000589 -2.012757 -1.435129 Connectivity: 1 (2 )
			element: 9 atom: 9 [    H_benz] Charge:  0.095000 Anisotropy: 0.000000 Position:  0.000317  0.236479 -2.460663 Connectivity: 1 (3 )
			element: 10 atom: 10 [    H_benz] Charge:  0.095000 Anisotropy: 0.000000 Position: -0.000420  2.249236 -1.025535 Connectivity: 1 (4 )
			element: 11 atom: 11 [    H_benz] Charge:  0.095000 Anisotropy: 0.000000 Position:  0.000330  2.012757  1.435129 Connectivity: 1 (5 )
		number of permanent dipoles: 0
		number of polarizabilities: 0

		Dipole:           0.0005443763 [D]
		Quadrupole:      -5.7126418267       2.8563201813       2.8563216454 [D Angstrom]
		Quadrupole tensor [D Angstrom]
				      -5.7126415627      -0.0014751061      -0.0002925408
				      -0.0014751061       2.8563199519       0.0000001378
				      -0.0002925408       0.0000001378       2.8563216108

	Starting bead for growth               : 0

	Degrees of freedom                     : 0
	Translational degrees of freedom       : 0
	Rotational degrees of freedom          : 0
	Vibrational degrees of freedom         : 0
	Constraint degrees of freedom          : 0

	Number of atoms                        : 12

	Number of constraint bonds             : 0
	Number of constraint bends             : 0
	Number of constraint inversion bends   : 0
	Number of constraint torsions          : 0
	Number of constraint improper torsions : 0
	Number of constraint improper torsions : 0

	Number of bonds                        : 12
	Number of Urey-Bradleys                : 0
	Number of bends                        : 0
	Number of inversion bends              : 0
	Number of torsions                     : 0
	Number of improper torsions            : 0
	Number of improper torsions            : 0

	Number of bond/bond cross terms        : 0
	Number of bond/bend cross terms        : 0
	Number of bend/bend cross terms        : 0
	Number of stretch/torsion cross terms  : 0
	Number of bend/torsion cross terms     : 0

	Number of charges                      : 12
	Number of bond-dipoles                 : 0

	Number of intra Van der Waals                             : 0
	Number of intra charge-charge Coulomb                     : 0
	Number of intra charge-bonddipole Coulomb                 : 0
	Number of intra bonddipole-bonddipole Coulomb             : 0

	Number of excluded intra charge-charge Coulomb                     : 66
	Number of excluded intra charge-bonddipole Coulomb                 : 0
	Number of excluded intra bonddipole-bonddipole Coulomb             : 0

	Number of cbmc-config moves                               : 0

	Particle Moves:             
		ProbabilityTranslationMove:                  33.333333
			TranslationDirection:      XYZ
		Percentage of random translation moves:            0.000000
		Percentage of rotation moves:                      33.333333
		Percentage of random rotation moves:               0.000000
		Percentage of partial reinsertion moves:           0.000000
		Percentage of reinsertion moves:                   33.333333
		Percentage of reinsertion-in-place moves:          0.000000
		Percentage of reinsertion-in-plane moves:          0.000000
		Percentage of identity-change moves:               0.000000
		Percentage of swap (insert/delete) moves:          0.000000
		Percentage of CF swap lambda moves:                0.000000
		Percentage of CB/CFMC swap lambda moves:           0.000000
		Percentage of Widom insertion moves:               0.000000
		Percentage of CF-Widom insertion moves:            0.000000
		Percentage of Gibbs Widom insertion moves:         0.000000
		Percentage of surface-area moves:                  0.000000
		Percentage of Gibbs particle-transfer moves:       0.000000
		Percentage of Gibbs identity-change moves:         0.000000
		Percentage of CF Gibbs lambda-transfer moves:      0.000000
		Percentage of CB/CFMC Gibbs lambda-transfer moves: 0.000000
		Percentage of exchange frac./int. particle moves:  0.000000
		Percentage of fractional mol. to other box moves:  0.000000
		Percentage of lambda-change moves:                 0.000000
		Percentage of fractional to integer moves:         0.000000

	System Moves:
		Percentage of parallel-tempering moves:            0.000000
		Percentage of hyper-parallel-tempering moves:      0.000000
		Percentage of parallel-mol-fraction moves:         0.000000
			   Component A: 0 B: 1
		Percentage of chiral inversion moves:              0.000000
		Percentage of Hybrid-NVE moves:                    0.000000
		Percentage of Hybrid-NPH moves:                    0.000000
		Percentage of Hybrid-NPHPR moves:                  0.000000
		Percentage of volume-change moves:                 0.000000
		Percentage of box-shape-change moves:              0.000000
		Percentage of Gibbs volume-change moves:           0.000000
		Percentage of framework-change moves:              0.000000
		Percentage of framework-shift moves:               0.000000
		Percentage of reactive MC moves:                   0.000000

	Moves are restricted: No
	No biased sampling used for this component

	Number of Bonds: 12
	--------------------------------------------
	Bond interaction 0: A=0 B=1 Type:RIGID_BOND
		r_0=1.3920000000       [A]
	Bond interaction 1: A=1 B=2 Type:RIGID_BOND
		r_0=1.3919999982       [A]
	Bond interaction 2: A=2 B=3 Type:RIGID_BOND
		r_0=1.3920000059       [A]
	Bond interaction 3: A=3 B=4 Type:RIGID_BOND
		r_0=1.3920005921       [A]
	Bond interaction 4: A=4 B=5 Type:RIGID_BOND
		r_0=1.3920004048       [A]
	Bond interaction 5: A=5 B=0 Type:RIGID_BOND
		r_0=1.3920000001       [A]
	Bond interaction 6: A=0 B=6 Type:RIGID_BOND
		r_0=1.0799999985       [A]
	Bond interaction 7: A=1 B=7 Type:RIGID_BOND
		r_0=1.0799999959       [A]
	Bond interaction 8: A=2 B=8 Type:RIGID_BOND
		r_0=1.0799999995       [A]
	Bond interaction 9: A=3 B=9 Type:RIGID_BOND
		r_0=1.0799999953       [A]
	Bond interaction 10: A=4 B=10 Type:RIGID_BOND
		r_0=1.0799997078       [A]
	Bond interaction 11: A=5 B=11 Type:RIGID_BOND
		r_0=1.0800000145       [A]


	number of identity-config changes: 1
	--------------------------------------------
	nr fixed 1: 0 

	Number of pockets blocked in a unitcell: 0
		Pockets are NOT blocked for this component



Framework Status
===========================================================================
Lowenstein's rule obeyed by framework
	Framework is modelled as: rigid

	Number of charges:                               424
	Number of bonddipoles:                           0


System Properties
===========================================================================
Unit cell size: 25.832000 25.832000 25.832000
Cell angles (radians)  alpha: 1.570796 beta: 1.570796 gamma: 1.570796
Cell angles (degrees)  alpha: 90.000000 beta: 90.000000 gamma: 90.000000
Number of unitcells [a]: 1
Number of unitcells [b]: 1
Number of unitcells [c]: 1

TRICLINIC Boundary conditions: alpha!=90 or beta!=90 or gamma!=90

Cartesian axis A is collinear with crystallographic axis a
Cartesian axis B is collinear with (axb)xA
Cartesian axis C is collinear with (axb)

lengths of cell vectors:
 25.83200  25.83200  25.83200
cosines of cell angles:
  0.00000   0.00000   0.00000
perpendicular cell widths:
 25.83200  25.83200  25.83200
volume of the cell: 17237.492730368002 (A^3)

Orthogonalization matrix Box
Transforms fractional coordinates abc into orthonormal Cartesian coordinates xyz
Deorthogonalization matrix InverseBox
Transforms orthonormal Cartesian coordinates xyz into fractional coordinates xyz

Box[0]:
	   25.832000000000     0.000000000000     0.000000000000
	    0.000000000000    25.832000000000     0.000000000000
	    0.000000000000     0.000000000000    25.832000000000

Inverse box[0]:
	    0.038711675441    -0.000000000000    -0.000000000000
	    0.000000000000     0.038711675441    -0.000000000000
	    0.000000000000     0.000000000000     0.038711675441


Unitcell box[0]:
	   25.832000000000     0.000000000000     0.000000000000
	    0.000000000000    25.832000000000     0.000000000000
	    0.000000000000     0.000000000000    25.832000000000

Unitcell inverse box[0]:
	    0.038711675441    -0.000000000000    -0.000000000000
	    0.000000000000     0.038711675441    -0.000000000000
	    0.000000000000     0.000000000000     0.038711675441

lengths of cell vectors (inverse box):
  0.03871   0.03871   0.03871
cosines of cell angles (inverse box):
 -0.00000  -0.00000  -0.00000
perpendicular cell widths (inverse):
  0.03871   0.03871   0.03871
volume of the cell: 17237.492730368002 (A^3)

No replicas are used
Framework is simulated as 'rigid'
Number of framework atoms: 424
Number of framework atoms in the unit cell: 424
Framework Mass:  6158.594239999981 [g/mol]
Framework Density:   593.275622947865 [kg/m^3]    1.6855572036336 [cm^3/g]
Helium void fraction:    0.00000000
Available pore volume:    0.00000000 [A^3]    0.00000000 [cm^3/g]
Conversion factor from molecule/unit cell -> kmol/m^3: 0.096333, kmol/m^3 accesible pore volume: inf

Number Of Frameworks (per system): 1
----------------------------------------------------------------------
Framework name: IRMOF-1
Citation:
	author name:        'M. Eddaoudi, J. Kim, N. Rosi, D. Vodak, J. Wachter, M. O. Keeffe, and O.M. Yaghi'
	title:              'Systematic design of pore size and functionality in isoreticular MOFs and their application in methane storage'
	journal abbrev.:    'Science'
	journal volume:     295
	first page:         469
	last page:          472
	year:               2002
Space group: 225
	Identifier: 523
	short international Hermann-Mauguin symbol: F m -3 m
	long international Hermann-Mauguin symbol: F 4/m -3 2/m
	Hall symbol: -F 4 2 3
	Number of lattice translations: 4 [ (0,0,0) (0,0.5,0.5) (0.5,0,0.5) (0.5,0.5,0) ]
	acentric/centric: acentric
	chiral: yes
	enantiomorphic: no
	number of operators: 192
		'x,y,z'
		'-x,-y,z'
		'-x,y,-z'
		'x,-y,-z'
		'z,x,y'
		'z,-x,-y'
		'-z,-x,y'
		'-z,x,-y'
		'y,z,x'
		'-y,z,-x'
		'y,-z,-x'
		'-y,-z,x'
		'y,x,-z'
		'-y,-x,-z'
		'y,-x,z'
		'-y,x,z'
		'x,z,-y'
		'-x,z,y'
		'-x,-z,-y'
		'x,-z,y'
		'z,y,-x'
		'z,-y,x'
		'-z,y,x'
		'-z,-y,-x'
		'-x,-y,-z'
		'x,y,-z'
		'x,-y,z'
		'-x,y,z'
		'-z,-x,-y'
		'-z,x,y'
		'z,x,-y'
		'z,-x,y'
		'-y,-z,-x'
		'y,-z,x'
		'-y,z,x'
		'y,z,-x'
		'-y,-x,z'
		'y,x,z'
		'-y,x,-z'
		'y,-x,-z'
		'-x,-z,y'
		'x,-z,-y'
		'x,z,y'
		'-x,z,-y'
		'-z,-y,x'
		'-z,y,-x'
		'z,-y,-x'
		'z,y,x'
		'x,y+1/2,z+1/2'
		'-x,-y+1/2,z+1/2'
		'-x,y+1/2,-z+1/2'
		'x,-y+1/2,-z+1/2'
		'z,x+1/2,y+1/2'
		'z,-x+1/2,-y+1/2'
		'-z,-x+1/2,y+1/2'
		'-z,x+1/2,-y+1/2'
		'y,z+1/2,x+1/2'
		'-y,z+1/2,-x+1/2'
		'y,-z+1/2,-x+1/2'
		'-y,-z+1/2,x+1/2'
		'y,x+1/2,-z+1/2'
		'-y,-x+1/2,-z+1/2'
		'y,-x+1/2,z+1/2'
		'-y,x+1/2,z+1/2'
		'x,z+1/2,-y+1/2'
		'-x,z+1/2,y+1/2'
		'-x,-z+1/2,-y+1/2'
		'x,-z+1/2,y+1/2'
		'z,y+1/2,-x+1/2'
		'z,-y+1/2,x+1/2'
		'-z,y+1/2,x+1/2'
		'-z,-y+1/2,-x+1/2'
		'-x,-y+1/2,-z+1/2'
		'x,y+1/2,-z+1/2'
		'x,-y+1/2,z+1/2'
		'-x,y+1/2,z+1/2'
		'-z,-x+1/2,-y+1/2'
		'-z,x+1/2,y+1/2'
		'z,x+1/2,-y+1/2'
		'z,-x+1/2,y+1/2'
		'-y,-z+1/2,-x+1/2'
		'y,-z+1/2,x+1/2'
		'-y,z+1/2,x+1/2'
		'y,z+1/2,-x+1/2'
		'-y,-x+1/2,z+1/2'
		'y,x+1/2,z+1/2'
		'-y,x+1/2,-z+1/2'
		'y,-x+1/2,-z+1/2'
		'-x,-z+1/2,y+1/2'
		'x,-z+1/2,-y+1/2'
		'x,z+1/2,y+1/2'
		'-x,z+1/2,-y+1/2'
		'-z,-y+1/2,x+1/2'
		'-z,y+1/2,-x+1/2'
		'z,-y+1/2,-x+1/2'
		'z,y+1/2,x+1/2'
		'x+1/2,y,z+1/2'
		'-x+1/2,-y,z+1/2'
		'-x+1/2,y,-z+1/2'
		'x+1/2,-y,-z+1/2'
		'z+1/2,x,y+1/2'
		'z+1/2,-x,-y+1/2'
		'-z+1/2,-x,y+1/2'
		'-z+1/2,x,-y+1/2'
		'y+1/2,z,x+1/2'
		'-y+1/2,z,-x+1/2'
		'y+1/2,-z,-x+1/2'
		'-y+1/2,-z,x+1/2'
		'y+1/2,x,-z+1/2'
		'-y+1/2,-x,-z+1/2'
		'y+1/2,-x,z+1/2'
		'-y+1/2,x,z+1/2'
		'x+1/2,z,-y+1/2'
		'-x+1/2,z,y+1/2'
		'-x+1/2,-z,-y+1/2'
		'x+1/2,-z,y+1/2'
		'z+1/2,y,-x+1/2'
		'z+1/2,-y,x+1/2'
		'-z+1/2,y,x+1/2'
		'-z+1/2,-y,-x+1/2'
		'-x+1/2,-y,-z+1/2'
		'x+1/2,y,-z+1/2'
		'x+1/2,-y,z+1/2'
		'-x+1/2,y,z+1/2'
		'-z+1/2,-x,-y+1/2'
		'-z+1/2,x,y+1/2'
		'z+1/2,x,-y+1/2'
		'z+1/2,-x,y+1/2'
		'-y+1/2,-z,-x+1/2'
		'y+1/2,-z,x+1/2'
		'-y+1/2,z,x+1/2'
		'y+1/2,z,-x+1/2'
		'-y+1/2,-x,z+1/2'
		'y+1/2,x,z+1/2'
		'-y+1/2,x,-z+1/2'
		'y+1/2,-x,-z+1/2'
		'-x+1/2,-z,y+1/2'
		'x+1/2,-z,-y+1/2'
		'x+1/2,z,y+1/2'
		'-x+1/2,z,-y+1/2'
		'-z+1/2,-y,x+1/2'
		'-z+1/2,y,-x+1/2'
		'z+1/2,-y,-x+1/2'
		'z+1/2,y,x+1/2'
		'x+1/2,y+1/2,z'
		'-x+1/2,-y+1/2,z'
		'-x+1/2,y+1/2,-z'
		'x+1/2,-y+1/2,-z'
		'z+1/2,x+1/2,y'
		'z+1/2,-x+1/2,-y'
		'-z+1/2,-x+1/2,y'
		'-z+1/2,x+1/2,-y'
		'y+1/2,z+1/2,x'
		'-y+1/2,z+1/2,-x'
		'y+1/2,-z+1/2,-x'
		'-y+1/2,-z+1/2,x'
		'y+1/2,x+1/2,-z'
		'-y+1/2,-x+1/2,-z'
		'y+1/2,-x+1/2,z'
		'-y+1/2,x+1/2,z'
		'x+1/2,z+1/2,-y'
		'-x+1/2,z+1/2,y'
		'-x+1/2,-z+1/2,-y'
		'x+1/2,-z+1/2,y'
		'z+1/2,y+1/2,-x'
		'z+1/2,-y+1/2,x'
		'-z+1/2,y+1/2,x'
		'-z+1/2,-y+1/2,-x'
		'-x+1/2,-y+1/2,-z'
		'x+1/2,y+1/2,-z'
		'x+1/2,-y+1/2,z'
		'-x+1/2,y+1/2,z'
		'-z+1/2,-x+1/2,-y'
		'-z+1/2,x+1/2,y'
		'z+1/2,x+1/2,-y'
		'z+1/2,-x+1/2,y'
		'-y+1/2,-z+1/2,-x'
		'y+1/2,-z+1/2,x'
		'-y+1/2,z+1/2,x'
		'y+1/2,z+1/2,-x'
		'-y+1/2,-x+1/2,z'
		'y+1/2,x+1/2,z'
		'-y+1/2,x+1/2,-z'
		'y+1/2,-x+1/2,-z'
		'-x+1/2,-z+1/2,y'
		'x+1/2,-z+1/2,-y'
		'x+1/2,z+1/2,y'
		'-x+1/2,z+1/2,-y'
		'-z+1/2,-y+1/2,x'
		'-z+1/2,y+1/2,-x'
		'z+1/2,-y+1/2,-x'
		'z+1/2,y+1/2,x'
Framework is simulated as 'rigid'
Shift: 0.000000 0.000000 0.000000
Number of framework atoms: 424
Number of asymmetric atoms: 7
Number of free framework atoms: 0
Number of fixed framework atoms: 424
Number of framework atoms in the unit cell: 424
Framework Mass:  6158.594239999981 [g/mol]
Framework Density:   593.275622947865 [kg/m^3]
Framework has net charge: 0.000000
         largest charge : 1.275000
         smallest charge: -1.500000

Using FULL Host-guest interaction calculation (for testing purposes)

Current Atom Status
===========================================================================
Number of framework atoms        : 424
Number of cations molecules      : 0
Number of adsorbate molecules    : 16
Component    0 :   16 molecules
Pseudo Atoms    0 [    UNIT]:    0 atoms
Pseudo Atoms    1 [     Zn1]:   32 atoms
Pseudo Atoms    2 [      O1]:    8 atoms
Pseudo Atoms    3 [      O2]:   96 atoms
Pseudo Atoms    4 [      C1]:   48 atoms
Pseudo Atoms    5 [      C2]:   48 atoms
Pseudo Atoms    6 [      C3]:   96 atoms
Pseudo Atoms    7 [      H1]:   96 atoms
Pseudo Atoms    8 [  C_benz]:   96 atoms
Pseudo Atoms    9 [  H_benz]:   96 atoms


Current (initial full energy) Energy Status
===========================================================================

Internal energy:
Host stretch energy:                                            0.00000000
Host UreyBradley energy:                                        0.00000000
Host bend energy:                                               0.00000000
Host inversion-bend energy:                                     0.00000000
Host torsion energy:                                            0.00000000
Host improper torsion energy:                                   0.00000000
Host out-of-plane energy:                                       0.00000000
Host stretch/stretch energy:                                    0.00000000
Host bend/bend energy:                                          0.00000000
Host stretch/bend energy:                                       0.00000000
Host stretch/torsion energy:                                    0.00000000
Host bend/torsion energy:                                       0.00000000

Adsorbate stretch energy:                                       0.00000000
Adsorbate UreyBradley energy:                                   0.00000000
Adsorbate bend energy:                                          0.00000000
Adsorbate inversion-bend energy:                                0.00000000
Adsorbate torsion energy:                                       0.00000000
Adsorbate improper torsion energy:                              0.00000000
Adsorbate out-of-plane energy:                                  0.00000000
Adsorbate stretch/stretch energy:                               0.00000000
Adsorbate bend/bend energy:                                     0.00000000
Adsorbate stretch/bend energy:                                  0.00000000
Adsorbate stretch/torsion energy:                               0.00000000
Adsorbate bend/torsion energy:                                  0.00000000
Adsorbate intra VDW energy:                                     0.00000000
Adsorbate intra charge-charge Coulomb energy:                   0.00000000
Adsorbate intra charge-bonddipole Coulomb energy:               0.00000000
Adsorbate intra bonddipole-bonddipole Coulomb energy:           0.00000000

Cation stretch energy:                                          0.00000000
Cation UreyBradley energy:                                      0.00000000
Cation bend energy:                                             0.00000000
Cation inversion-bend energy:                                   0.00000000
Cation torsion energy:                                          0.00000000
Cation improper torsion energy:                                 0.00000000
Cation out-of-plane energy:                                     0.00000000
Cation stretch/stretch energy:                                  0.00000000
Cation bend/bend energy:                                        0.00000000
Cation stretch/bend energy:                                     0.00000000
Cation stretch/torsion energy:                                  0.00000000
Cation bend/torsion energy:                                     0.00000000
Cation intra VDW energy:                                        0.00000000
Cation intra charge-charge Coulomb energy:                      0.00000000
Cation intra charge-bonddipole Coulomb energy:                  0.00000000
Cation intra bonddipole-bonddipole Coulomb energy:              0.00000000

Host/Host energy:                                             0.00000000
	Host/Host VDW energy:                                         0.00000000
	Host/Host Coulomb energy:                                     0.00000000
	Host/Host charge-charge Real energy:                          0.00000000
	Host/Host charge-charge Fourier energy:                       0.00000000
	Host/Host charge-bonddipole Real energy:                      0.00000000
	Host/Host charge-bonddipole Fourier energy:                   0.00000000
	Host/Host bondipole-bonddipole Real energy:                   0.00000000
	Host/Host bondipole-bonddipole Fourier energy:                0.00000000

Host/Adsorbate energy:                                     -344.77560048
	Host/Adsorbate VDW energy:                                 1199.06862109
	Host/Adsorbate Coulomb energy:                            -1543.84422158
	Host/Adsorbate charge-charge Real energy:                 -1857.45700280
	Host/Adsorbate charge-charge Fourier energy:                313.61278122
	Host/Adsorbate charge-bonddipole Real energy:                 0.00000000
	Host/Adsorbate charge-bonddipole Fourier energy:              0.00000000
	Host/Adsorbate bondipole-bonddipole Real energy:              0.00000000
	Host/Adsorbate bondipole-bonddipole Fourier energy:           0.00000000

Host/Cation energy:                                           0.00000000
	Host/Cation VDW energy:                                       0.00000000
	Host/Cation Coulomb energy:                                   0.00000000
	Host/Cation charge-charge Real energy:                        0.00000000
	Host/Cation charge-charge Fourier energy:                     0.00000000
	Host/Cation charge-bonddipole Real energy:                    0.00000000
	Host/Cation charge-bonddipole Fourier energy:                 0.00000000
	Host/Cation bondipole-bonddipole Real energy:                 0.00000000
	Host/Cation bondipole-bonddipole Fourier energy:              0.00000000

Adsorbate/Adsorbate energy:                                    -3077.80909184
	Adsorbate/Adsorbate VDW energy:                                -3134.29319499
	Adsorbate/Adsorbate Coulomb energy:                               56.48410315
	Adsorbate/Adsorbate charge-charge Real energy:                   209.83979697
	Adsorbate/Adsorbate charge-charge Fourier energy:               -153.35569381
	Adsorbate/Adsorbate charge-bonddipole Real energy:                 0.00000000
	Adsorbate/Adsorbate charge-bonddipole Fourier energy:              0.00000000
	Adsorbate/Adsorbate bondipole-bonddipole Real energy:              0.00000000
	Adsorbate/Adsorbate bondipole-bonddipole Fourier energy:           0.00000000

Adsorbate/Cation energy:                                           0.00000000
	Adsorbate/Cation VDW energy:                                       0.00000000
	Adsorbate/Cation Coulomb energy:                                   0.00000000
	Adsorbate/Cation charge-charge Real energy:                        0.00000000
	Adsorbate/Cation charge-charge Fourier energy:                     0.00000000
	Adsorbate/Cation charge-bonddipole Real energy:                    0.00000000
	Adsorbate/Cation charge-bonddipole Fourier energy:                 0.00000000
	Adsorbate/Cation bondipole-bonddipole Real energy:                 0.00000000
	Adsorbate/Cation bondipole-bonddipole Fourier energy:              0.00000000

Cation/Cation energy:                                           0.00000000
	Cation/Cation VDW energy:                                       0.00000000
	Cation/Cation Coulomb energy:                                   0.00000000
	Cation/Cation charge-charge Real energy:                        0.00000000
	Cation/Cation charge-charge Fourier energy:                     0.00000000
	Cation/Cation charge-bonddipole Real energy:                    0.00000000
	Cation/Cation charge-bonddipole Fourier energy:                 0.00000000
	Cation/Cation bondipole-bonddipole Real energy:                 0.00000000
	Cation/Cation bondipole-bonddipole Fourier energy:              0.00000000

Polarization energy:
	Host polarization energy:                                     0.00000000
	Adsorbate polarization energy:                                0.00000000
	Cation polarization energy:                                   0.00000000
	Host back-polarization energy:                                     0.00000000
	Adsorbate back-polarization energy:                                0.00000000
	Cation back-polarization energy:                                   0.00000000

Tail-correction energy:                                       0.00000000

Distance constraints energy:                                  0.00000000
Angle constraints energy:                                     0.00000000
Dihedral constraints energy:                                  0.00000000
Inversion-bend constraints energy:                            0.00000000
Out-of-plane distance constraints energy:                     0.00000000
Exclusion constraints energy:                                 0.00000000

===================================================================
Total energy: -3422.584692327812
	Total Van der Waals: -1935.224574
	Total Coulomb: -1487.360118

	Total Polarization: 0.000000







+++++++++++++++++++++++++++++++++++++++++++++++++++++++++++++++++++++++++
Starting simulation
+++++++++++++++++++++++++++++++++++++++++++++++++++++++++++++++++++++++++

[Init] Current cycle: 0 out of 1000
========================================================================================================

Net charge: 7.74381e-15 (F: 7.77156e-15, A: -2.77556e-17, C: 0)
Current Box:  25.83200   0.00000   0.00000 [A]
               0.00000  25.83200   0.00000 [A]
               0.00000   0.00000  25.83200 [A]
Box-lengths:  25.83200  25.83200  25.83200 Box-angles:   90.00000  90.00000  90.00000 [degrees]
Volume: 17237.49273 [A^3]

Loadings per component:
----------------------------------------------------------------------------------------------------------------------------------------------------
Component 0 (benzene), current number of integer/fractional/reaction molecules: 16/0/0, density: 120.29707 [kg/m^3]
	absolute adsorption:  16.00000 [mol/uc],         2.5980 [mol/kg],            202.7674 [mg/g]
	                                                58.2314 [cm^3 STP/g],         34.5473 [cm^3 STP/cm^3]
	excess adsorption:    16.00000 [mol/uc],         2.5980 [mol/kg],            202.7674 [mg/g]
	                                                58.2314 [cm^3 STP/g],         34.5473 [cm^3 STP/cm^3]
----------------------------------------------------------------------------------------------------------------------------------------------------
Degrees of freedom: 96 0 96 0
Number of Framework-atoms:    424
Number of Adsorbates:          16 (16 integer, 0 fractional, 0 reaction)
Number of Cations:              0 (0 integer, 0 fractional, 0 reaction

Current total potential energy:             -3422.5846923278 [K]
	Current Host-Host energy:                     0.0000000000 [K]
	Current Host-Adsorbate energy:             -344.7756004849 [K]
	Current Host-Cation energy:                   0.0000000000 [K]
	Current Adsorbate-Adsorbate energy:       -3077.8090918429 [K]
	Current Cation-Cation energy:                 0.0000000000 [K]
	Current Adsorbate-Cation energy:              0.0000000000 [K]



[Equilibration] Current cycle: 0 out of 100000
========================================================================================================

Net charge: 7.74381e-15 (F: 7.77156e-15, A: -2.77556e-17, C: 0)
Current Box:  25.83200   0.00000   0.00000 [A]
               0.00000  25.83200   0.00000 [A]
               0.00000   0.00000  25.83200 [A]
Box-lengths:  25.83200  25.83200  25.83200 Box-angles:   90.00000  90.00000  90.00000 [degrees]
Volume: 17237.49273 [A^3]

Total linear momentum:       0.0000000000 [A]      -0.0000000000 [A]       0.0000000000 [A]

Loadings per component:
----------------------------------------------------------------------------------------------------------------------------------------------------
Component 0 (benzene), current number of integer/fractional/reaction molecules: 16/0/0, density: 120.29707 [kg/m^3]
	absolute adsorption:  16.00000 [mol/uc],         2.5980 [mol/kg],            202.7674 [mg/g]
	                                                 58.2314 [cm^3 STP/g],         34.5473 [cm^3 STP/cm^3]
	excess adsorption:    16.00000 [mol/uc],         2.5980 [mol/kg],            202.7674 [mg/g]
	                                                 58.2314 [cm^3 STP/g],         34.5473 [cm^3 STP/cm^3]
----------------------------------------------------------------------------------------------------------------------------------------------------
Degrees of freedom: 96 0 96 0
Number of Framework-atoms:    424
Number of Adsorbates:          16 (16 integer, 0 fractional, 0 reaction)
Number of Cations:              0 (0 integer, 0 fractional, 0 reaction)

Conserved energy:      -36560.2280871773 Energy drifts:  0.0000000000           0.0000000000
Temperature:                    351.4947352766
Temperature Adsorbates:         351.4947352766
Cell temperature:    0.000
Current total kinetic energy:             14027.9550997378 [K]
Current total Nose-Hoover energy:         11761.4794099615 [K]
Current total potential energy:            -67577.8072604868 [K]
	Current Host-Host energy:                     0.0000000000 [K]
	Current Host-Adsorbate energy:           -53012.7025645307 [K]
	Current Host-Cation energy:                   0.0000000000 [K]
	Current Adsorbate-Adsorbate energy:      -14565.1046959561 [K]
	Current Cation-Cation energy:                 0.0000000000 [K]
	Current Adsorbate-Cation energy:              0.0000000000 [K]



[Equilibration] Current cycle: 5000 out of 100000
========================================================================================================

Net charge: 7.74381e-15 (F: 7.77156e-15, A: -2.77556e-17, C: 0)
Current Box:  25.83200   0.00000   0.00000 [A]
               0.00000  25.83200   0.00000 [A]
               0.00000   0.00000  25.83200 [A]
Box-lengths:  25.83200  25.83200  25.83200 Box-angles:   90.00000  90.00000  90.00000 [degrees]
Volume: 17237.49273 [A^3]

Total linear momentum:       0.4003017811 [A]      -0.5973041184 [A]       0.5462226134 [A]

Loadings per component:
----------------------------------------------------------------------------------------------------------------------------------------------------
Component 0 (benzene), current number of integer/fractional/reaction molecules: 16/0/0, density: 120.29707 [kg/m^3]
	absolute adsorption:  16.00000 [mol/uc],         2.5980 [mol/kg],            202.7674 [mg/g]
	                                                 58.2314 [cm^3 STP/g],         34.5473 [cm^3 STP/cm^3]
	excess adsorption:    16.00000 [mol/uc],         2.5980 [mol/kg],            202.7674 [mg/g]
	                                                 58.2314 [cm^3 STP/g],         34.5473 [cm^3 STP/cm^3]
----------------------------------------------------------------------------------------------------------------------------------------------------
Degrees of freedom: 96 0 96 0
Number of Framework-atoms:    424
Number of Adsorbates:          16 (16 integer, 0 fractional, 0 reaction)
Number of Cations:              0 (0 integer, 0 fractional, 0 reaction)

Conserved energy:      -36557.6231123133 Energy drifts:  0.0000856960           0.0000831301
Temperature:                    324.5809249913
Temperature Adsorbates:         324.5809249913
Cell temperature:    0.000
Current total kinetic energy:             12953.8402287181 [K]
Current total Nose-Hoover energy:         16543.1911297412 [K]
Current total potential energy:            -72034.4190534771 [K]
	Current Host-Host energy:                     0.0000000000 [K]
	Current Host-Adsorbate energy:           -56381.3250968276 [K]
	Current Host-Cation energy:                   0.0000000000 [K]
	Current Adsorbate-Adsorbate energy:      -15653.0939566495 [K]
	Current Cation-Cation energy:                 0.0000000000 [K]
	Current Adsorbate-Cation energy:              0.0000000000 [K]



[Equilibration] Current cycle: 10000 out of 100000
========================================================================================================

Net charge: 7.74381e-15 (F: 7.77156e-15, A: -2.77556e-17, C: 0)
Current Box:  25.83200   0.00000   0.00000 [A]
               0.00000  25.83200   0.00000 [A]
               0.00000   0.00000  25.83200 [A]
Box-lengths:  25.83200  25.83200  25.83200 Box-angles:   90.00000  90.00000  90.00000 [degrees]
Volume: 17237.49273 [A^3]

Total linear momentum:       0.1033642004 [A]       0.0060594038 [A]      -0.0577706512 [A]

Loadings per component:
----------------------------------------------------------------------------------------------------------------------------------------------------
Component 0 (benzene), current number of integer/fractional/reaction molecules: 16/0/0, density: 120.29707 [kg/m^3]
	absolute adsorption:  16.00000 [mol/uc],         2.5980 [mol/kg],            202.7674 [mg/g]
	                                                 58.2314 [cm^3 STP/g],         34.5473 [cm^3 STP/cm^3]
	excess adsorption:    16.00000 [mol/uc],         2.5980 [mol/kg],            202.7674 [mg/g]
	                                                 58.2314 [cm^3 STP/g],         34.5473 [cm^3 STP/cm^3]
----------------------------------------------------------------------------------------------------------------------------------------------------
Degrees of freedom: 96 0 96 0
Number of Framework-atoms:    424
Number of Adsorbates:          16 (16 integer, 0 fractional, 0 reaction)
Number of Cations:              0 (0 integer, 0 fractional, 0 reaction)

Conserved energy:      -36557.0671052670 Energy drifts:  0.0001039870           0.0000820450
Temperature:                    265.2213745383
Temperature Adsorbates:         265.2213745383
Cell temperature:    0.000
Current total kinetic energy:             10584.8343093544 [K]
Current total Nose-Hoover energy:         18241.7819402817 [K]
Current total potential energy:            -71227.5385142240 [K]
	Current Host-Host energy:                     0.0000000000 [K]
	Current Host-Adsorbate energy:           -55278.1831780619 [K]
	Current Host-Cation energy:                   0.0000000000 [K]
	Current Adsorbate-Adsorbate energy:      -15949.3553361621 [K]
	Current Cation-Cation energy:                 0.0000000000 [K]
	Current Adsorbate-Cation energy:              0.0000000000 [K]



[Equilibration] Current cycle: 15000 out of 100000
========================================================================================================

Net charge: 7.74381e-15 (F: 7.77156e-15, A: -2.77556e-17, C: 0)
Current Box:  25.83200   0.00000   0.00000 [A]
               0.00000  25.83200   0.00000 [A]
               0.00000   0.00000  25.83200 [A]
Box-lengths:  25.83200  25.83200  25.83200 Box-angles:   90.00000  90.00000  90.00000 [degrees]
Volume: 17237.49273 [A^3]

Total linear momentum:       0.6375881358 [A]      -0.4157343791 [A]      -0.4428267933 [A]

Loadings per component:
----------------------------------------------------------------------------------------------------------------------------------------------------
Component 0 (benzene), current number of integer/fractional/reaction molecules: 16/0/0, density: 120.29707 [kg/m^3]
	absolute adsorption:  16.00000 [mol/uc],         2.5980 [mol/kg],            202.7674 [mg/g]
	                                                 58.2314 [cm^3 STP/g],         34.5473 [cm^3 STP/cm^3]
	excess adsorption:    16.00000 [mol/uc],         2.5980 [mol/kg],            202.7674 [mg/g]
	                                                 58.2314 [cm^3 STP/g],         34.5473 [cm^3 STP/cm^3]
----------------------------------------------------------------------------------------------------------------------------------------------------
Degrees of freedom: 96 0 96 0
Number of Framework-atoms:    424
Number of Adsorbates:          16 (16 integer, 0 fractional, 0 reaction)
Number of Cations:              0 (0 integer, 0 fractional, 0 reaction)

Conserved energy:      -36557.1588278457 Energy drifts:  0.0001009696           0.0000814330
Temperature:                    289.7057617094
Temperature Adsorbates:         289.7057617094
Cell temperature:    0.000
Current total kinetic energy:             11561.9922847379 [K]
Current total Nose-Hoover energy:         15799.8827961769 [K]
Current total potential energy:            -69465.9504623923 [K]
	Current Host-Host energy:                     0.0000000000 [K]
	Current Host-Adsorbate energy:           -53450.7263853685 [K]
	Current Host-Cation energy:                   0.0000000000 [K]
	Current Adsorbate-Adsorbate energy:      -16015.2240770238 [K]
	Current Cation-Cation energy:                 0.0000000000 [K]
	Current Adsorbate-Cation energy:              0.0000000000 [K]



[Equilibration] Current cycle: 20000 out of 100000
========================================================================================================

Net charge: 7.74381e-15 (F: 7.77156e-15, A: -2.77556e-17, C: 0)
Current Box:  25.83200   0.00000   0.00000 [A]
               0.00000  25.83200   0.00000 [A]
               0.00000   0.00000  25.83200 [A]
Box-lengths:  25.83200  25.83200  25.83200 Box-angles:   90.00000  90.00000  90.00000 [degrees]
Volume: 17237.49273 [A^3]

Total linear momentum:      -0.3249202114 [A]      -0.1659286930 [A]      -0.1252856594 [A]

Loadings per component:
----------------------------------------------------------------------------------------------------------------------------------------------------
Component 0 (benzene), current number of integer/fractional/reaction molecules: 16/0/0, density: 120.29707 [kg/m^3]
	absolute adsorption:  16.00000 [mol/uc],         2.5980 [mol/kg],            202.7674 [mg/g]
	                                                 58.2314 [cm^3 STP/g],         34.5473 [cm^3 STP/cm^3]
	excess adsorption:    16.00000 [mol/uc],         2.5980 [mol/kg],            202.7674 [mg/g]
	                                                 58.2314 [cm^3 STP/g],         34.5473 [cm^3 STP/cm^3]
----------------------------------------------------------------------------------------------------------------------------------------------------
Degrees of freedom: 96 0 96 0
Number of Framework-atoms:    424
Number of Adsorbates:          16 (16 integer, 0 fractional, 0 reaction)
Number of Cations:              0 (0 integer, 0 fractional, 0 reaction)

Conserved energy:      -36557.4626606460 Energy drifts:  0.0000909744           0.0000812525
Temperature:                    263.7471941149
Temperature Adsorbates:         263.7471941149
Cell temperature:    0.000
Current total kinetic energy:             10526.0006065629 [K]
Current total Nose-Hoover energy:         19572.2545483473 [K]
Current total potential energy:            -72757.3650623364 [K]
	Current Host-Host energy:                     0.0000000000 [K]
	Current Host-Adsorbate energy:           -57109.5733436701 [K]
	Current Host-Cation energy:                   0.0000000000 [K]
	Current Adsorbate-Adsorbate energy:      -15647.7917186662 [K]
	Current Cation-Cation energy:                 0.0000000000 [K]
	Current Adsorbate-Cation energy:              0.0000000000 [K]



[Equilibration] Current cycle: 25000 out of 100000
========================================================================================================

Net charge: 7.74381e-15 (F: 7.77156e-15, A: -2.77556e-17, C: 0)
Current Box:  25.83200   0.00000   0.00000 [A]
               0.00000  25.83200   0.00000 [A]
               0.00000   0.00000  25.83200 [A]
Box-lengths:  25.83200  25.83200  25.83200 Box-angles:   90.00000  90.00000  90.00000 [degrees]
Volume: 17237.49273 [A^3]

Total linear momentum:       0.3879350287 [A]       0.3888169140 [A]      -0.1919561434 [A]

Loadings per component:
----------------------------------------------------------------------------------------------------------------------------------------------------
Component 0 (benzene), current number of integer/fractional/reaction molecules: 16/0/0, density: 120.29707 [kg/m^3]
	absolute adsorption:  16.00000 [mol/uc],         2.5980 [mol/kg],            202.7674 [mg/g]
	                                                 58.2314 [cm^3 STP/g],         34.5473 [cm^3 STP/cm^3]
	excess adsorption:    16.00000 [mol/uc],         2.5980 [mol/kg],            202.7674 [mg/g]
	                                                 58.2314 [cm^3 STP/g],         34.5473 [cm^3 STP/cm^3]
----------------------------------------------------------------------------------------------------------------------------------------------------
Degrees of freedom: 96 0 96 0
Number of Framework-atoms:    424
Number of Adsorbates:          16 (16 integer, 0 fractional, 0 reaction)
Number of Cations:              0 (0 integer, 0 fractional, 0 reaction)

Conserved energy:      -36557.0938196836 Energy drifts:  0.0001031082           0.0000807139
Temperature:                    381.2353391223
Temperature Adsorbates:         381.2353391223
Cell temperature:    0.000
Current total kinetic energy:             15214.8856950374 [K]
Current total Nose-Hoover energy:         12480.2882156364 [K]
Current total potential energy:            -69866.7520508410 [K]
	Current Host-Host energy:                     0.0000000000 [K]
	Current Host-Adsorbate energy:           -54852.7670797837 [K]
	Current Host-Cation energy:                   0.0000000000 [K]
	Current Adsorbate-Adsorbate energy:      -15013.9849710573 [K]
	Current Cation-Cation energy:                 0.0000000000 [K]
	Current Adsorbate-Cation energy:              0.0000000000 [K]



[Equilibration] Current cycle: 30000 out of 100000
========================================================================================================

Net charge: 7.74381e-15 (F: 7.77156e-15, A: -2.77556e-17, C: 0)
Current Box:  25.83200   0.00000   0.00000 [A]
               0.00000  25.83200   0.00000 [A]
               0.00000   0.00000  25.83200 [A]
Box-lengths:  25.83200  25.83200  25.83200 Box-angles:   90.00000  90.00000  90.00000 [degrees]
Volume: 17237.49273 [A^3]

Total linear momentum:       0.1501517174 [A]       0.1919387854 [A]      -0.7435021541 [A]

Loadings per component:
----------------------------------------------------------------------------------------------------------------------------------------------------
Component 0 (benzene), current number of integer/fractional/reaction molecules: 16/0/0, density: 120.29707 [kg/m^3]
	absolute adsorption:  16.00000 [mol/uc],         2.5980 [mol/kg],            202.7674 [mg/g]
	                                                 58.2314 [cm^3 STP/g],         34.5473 [cm^3 STP/cm^3]
	excess adsorption:    16.00000 [mol/uc],         2.5980 [mol/kg],            202.7674 [mg/g]
	                                                 58.2314 [cm^3 STP/g],         34.5473 [cm^3 STP/cm^3]
----------------------------------------------------------------------------------------------------------------------------------------------------
Degrees of freedom: 96 0 96 0
Number of Framework-atoms:    424
Number of Adsorbates:          16 (16 integer, 0 fractional, 0 reaction)
Number of Cations:              0 (0 integer, 0 fractional, 0 reaction)

Conserved energy:      -36557.0903110726 Energy drifts:  0.0001032236           0.0000812287
Temperature:                    224.9583016363
Temperature Adsorbates:         224.9583016363
Cell temperature:    0.000
Current total kinetic energy:              8977.9579548563 [K]
Current total Nose-Hoover energy:         12580.7469123846 [K]
Current total potential energy:            -62486.2682014278 [K]
	Current Host-Host energy:                     0.0000000000 [K]
	Current Host-Adsorbate energy:           -51653.7901847960 [K]
	Current Host-Cation energy:                   0.0000000000 [K]
	Current Adsorbate-Adsorbate energy:      -10832.4780166318 [K]
	Current Cation-Cation energy:                 0.0000000000 [K]
	Current Adsorbate-Cation energy:              0.0000000000 [K]



[Equilibration] Current cycle: 35000 out of 100000
========================================================================================================

Net charge: 7.74381e-15 (F: 7.77156e-15, A: -2.77556e-17, C: 0)
Current Box:  25.83200   0.00000   0.00000 [A]
               0.00000  25.83200   0.00000 [A]
               0.00000   0.00000  25.83200 [A]
Box-lengths:  25.83200  25.83200  25.83200 Box-angles:   90.00000  90.00000  90.00000 [degrees]
Volume: 17237.49273 [A^3]

Total linear momentum:      -0.1871248869 [A]       0.3521587632 [A]      -0.0254024674 [A]

Loadings per component:
----------------------------------------------------------------------------------------------------------------------------------------------------
Component 0 (benzene), current number of integer/fractional/reaction molecules: 16/0/0, density: 120.29707 [kg/m^3]
	absolute adsorption:  16.00000 [mol/uc],         2.5980 [mol/kg],            202.7674 [mg/g]
	                                                 58.2314 [cm^3 STP/g],         34.5473 [cm^3 STP/cm^3]
	excess adsorption:    16.00000 [mol/uc],         2.5980 [mol/kg],            202.7674 [mg/g]
	                                                 58.2314 [cm^3 STP/g],         34.5473 [cm^3 STP/cm^3]
----------------------------------------------------------------------------------------------------------------------------------------------------
Degrees of freedom: 96 0 96 0
Number of Framework-atoms:    424
Number of Adsorbates:          16 (16 integer, 0 fractional, 0 reaction)
Number of Cations:              0 (0 integer, 0 fractional, 0 reaction)

Conserved energy:      -36557.1329039785 Energy drifts:  0.0001018225           0.0000816070
Temperature:                    319.3782364504
Temperature Adsorbates:         319.3782364504
Cell temperature:    0.000
Current total kinetic energy:             12746.2038861928 [K]
Current total Nose-Hoover energy:         12058.7734644055 [K]
Current total potential energy:            -66390.6815447977 [K]
	Current Host-Host energy:                     0.0000000000 [K]
	Current Host-Adsorbate energy:           -52287.9741925774 [K]
	Current Host-Cation energy:                   0.0000000000 [K]
	Current Adsorbate-Adsorbate energy:      -14102.7073522204 [K]
	Current Cation-Cation energy:                 0.0000000000 [K]
	Current Adsorbate-Cation energy:              0.0000000000 [K]



[Equilibration] Current cycle: 40000 out of 100000
========================================================================================================

Net charge: 7.74381e-15 (F: 7.77156e-15, A: -2.77556e-17, C: 0)
Current Box:  25.83200   0.00000   0.00000 [A]
               0.00000  25.83200   0.00000 [A]
               0.00000   0.00000  25.83200 [A]
Box-lengths:  25.83200  25.83200  25.83200 Box-angles:   90.00000  90.00000  90.00000 [degrees]
Volume: 17237.49273 [A^3]

Total linear momentum:      -0.0744318319 [A]      -0.8666526730 [A]      -0.4436982073 [A]

Loadings per component:
----------------------------------------------------------------------------------------------------------------------------------------------------
Component 0 (benzene), current number of integer/fractional/reaction molecules: 16/0/0, density: 120.29707 [kg/m^3]
	absolute adsorption:  16.00000 [mol/uc],         2.5980 [mol/kg],            202.7674 [mg/g]
	                                                 58.2314 [cm^3 STP/g],         34.5473 [cm^3 STP/cm^3]
	excess adsorption:    16.00000 [mol/uc],         2.5980 [mol/kg],            202.7674 [mg/g]
	                                                 58.2314 [cm^3 STP/g],         34.5473 [cm^3 STP/cm^3]
----------------------------------------------------------------------------------------------------------------------------------------------------
Degrees of freedom: 96 0 96 0
Number of Framework-atoms:    424
Number of Adsorbates:          16 (16 integer, 0 fractional, 0 reaction)
Number of Cations:              0 (0 integer, 0 fractional, 0 reaction)

Conserved energy:      -36556.8563643215 Energy drifts:  0.0001109198           0.0000821143
Temperature:                    250.6677408458
Temperature Adsorbates:         250.6677408458
Cell temperature:    0.000
Current total kinetic energy:             10004.0070607895 [K]
Current total Nose-Hoover energy:         14808.6270659931 [K]
Current total potential energy:            -66399.6139957999 [K]
	Current Host-Host energy:                     0.0000000000 [K]
	Current Host-Adsorbate energy:           -54973.5166324689 [K]
	Current Host-Cation energy:                   0.0000000000 [K]
	Current Adsorbate-Adsorbate energy:      -11426.0973633310 [K]
	Current Cation-Cation energy:                 0.0000000000 [K]
	Current Adsorbate-Cation energy:              0.0000000000 [K]



[Equilibration] Current cycle: 45000 out of 100000
========================================================================================================

Net charge: 7.74381e-15 (F: 7.77156e-15, A: -2.77556e-17, C: 0)
Current Box:  25.83200   0.00000   0.00000 [A]
               0.00000  25.83200   0.00000 [A]
               0.00000   0.00000  25.83200 [A]
Box-lengths:  25.83200  25.83200  25.83200 Box-angles:   90.00000  90.00000  90.00000 [degrees]
Volume: 17237.49273 [A^3]

Total linear momentum:       0.5764620068 [A]       0.0187551658 [A]      -0.2649905041 [A]

Loadings per component:
----------------------------------------------------------------------------------------------------------------------------------------------------
Component 0 (benzene), current number of integer/fractional/reaction molecules: 16/0/0, density: 120.29707 [kg/m^3]
	absolute adsorption:  16.00000 [mol/uc],         2.5980 [mol/kg],            202.7674 [mg/g]
	                                                 58.2314 [cm^3 STP/g],         34.5473 [cm^3 STP/cm^3]
	excess adsorption:    16.00000 [mol/uc],         2.5980 [mol/kg],            202.7674 [mg/g]
	                                                 58.2314 [cm^3 STP/g],         34.5473 [cm^3 STP/cm^3]
----------------------------------------------------------------------------------------------------------------------------------------------------
Degrees of freedom: 96 0 96 0
Number of Framework-atoms:    424
Number of Adsorbates:          16 (16 integer, 0 fractional, 0 reaction)
Number of Cations:              0 (0 integer, 0 fractional, 0 reaction)

Conserved energy:      -36556.6261573187 Energy drifts:  0.0001184929           0.0000826600
Temperature:                    271.8089169938
Temperature Adsorbates:         271.8089169938
Cell temperature:    0.000
Current total kinetic energy:             10847.7393844808 [K]
Current total Nose-Hoover energy:         11086.5324941046 [K]
Current total potential energy:            -62937.5076127475 [K]
	Current Host-Host energy:                     0.0000000000 [K]
	Current Host-Adsorbate energy:           -51901.3872711765 [K]
	Current Host-Cation energy:                   0.0000000000 [K]
	Current Adsorbate-Adsorbate energy:      -11036.1203415710 [K]
	Current Cation-Cation energy:                 0.0000000000 [K]
	Current Adsorbate-Cation energy:              0.0000000000 [K]



[Equilibration] Current cycle: 50000 out of 100000
========================================================================================================

Net charge: 7.74381e-15 (F: 7.77156e-15, A: -2.77556e-17, C: 0)
Current Box:  25.83200   0.00000   0.00000 [A]
               0.00000  25.83200   0.00000 [A]
               0.00000   0.00000  25.83200 [A]
Box-lengths:  25.83200  25.83200  25.83200 Box-angles:   90.00000  90.00000  90.00000 [degrees]
Volume: 17237.49273 [A^3]

Total linear momentum:       0.4730831434 [A]      -0.6351039710 [A]       0.2565784250 [A]

Loadings per component:
----------------------------------------------------------------------------------------------------------------------------------------------------
Component 0 (benzene), current number of integer/fractional/reaction molecules: 16/0/0, density: 120.29707 [kg/m^3]
	absolute adsorption:  16.00000 [mol/uc],         2.5980 [mol/kg],            202.7674 [mg/g]
	                                                 58.2314 [cm^3 STP/g],         34.5473 [cm^3 STP/cm^3]
	excess adsorption:    16.00000 [mol/uc],         2.5980 [mol/kg],            202.7674 [mg/g]
	                                                 58.2314 [cm^3 STP/g],         34.5473 [cm^3 STP/cm^3]
----------------------------------------------------------------------------------------------------------------------------------------------------
Degrees of freedom: 96 0 96 0
Number of Framework-atoms:    424
Number of Adsorbates:          16 (16 integer, 0 fractional, 0 reaction)
Number of Cations:              0 (0 integer, 0 fractional, 0 reaction)

Conserved energy:      -36556.8581712015 Energy drifts:  0.0001108604           0.0000831021
Temperature:                    219.4001902690
Temperature Adsorbates:         219.4001902690
Cell temperature:    0.000
Current total kinetic energy:              8756.1368893486 [K]
Current total Nose-Hoover energy:         17425.5084219722 [K]
Current total potential energy:            -68046.1588003401 [K]
	Current Host-Host energy:                     0.0000000000 [K]
	Current Host-Adsorbate energy:           -53168.0813958983 [K]
	Current Host-Cation energy:                   0.0000000000 [K]
	Current Adsorbate-Adsorbate energy:      -14878.0774044417 [K]
	Current Cation-Cation energy:                 0.0000000000 [K]
	Current Adsorbate-Cation energy:              0.0000000000 [K]



[Equilibration] Current cycle: 55000 out of 100000
========================================================================================================

Net charge: 7.74381e-15 (F: 7.77156e-15, A: -2.77556e-17, C: 0)
Current Box:  25.83200   0.00000   0.00000 [A]
               0.00000  25.83200   0.00000 [A]
               0.00000   0.00000  25.83200 [A]
Box-lengths:  25.83200  25.83200  25.83200 Box-angles:   90.00000  90.00000  90.00000 [degrees]
Volume: 17237.49273 [A^3]

Total linear momentum:      -0.0944278724 [A]       0.1828815859 [A]       0.1399225966 [A]

Loadings per component:
----------------------------------------------------------------------------------------------------------------------------------------------------
Component 0 (benzene), current number of integer/fractional/reaction molecules: 16/0/0, density: 120.29707 [kg/m^3]
	absolute adsorption:  16.00000 [mol/uc],         2.5980 [mol/kg],            202.7674 [mg/g]
	                                                 58.2314 [cm^3 STP/g],         34.5473 [cm^3 STP/cm^3]
	excess adsorption:    16.00000 [mol/uc],         2.5980 [mol/kg],            202.7674 [mg/g]
	                                                 58.2314 [cm^3 STP/g],         34.5473 [cm^3 STP/cm^3]
----------------------------------------------------------------------------------------------------------------------------------------------------
Degrees of freedom: 96 0 96 0
Number of Framework-atoms:    424
Number of Adsorbates:          16 (16 integer, 0 fractional, 0 reaction)
Number of Cations:              0 (0 integer, 0 fractional, 0 reaction)

Conserved energy:      -36557.3636636058 Energy drifts:  0.0000942311           0.0000830533
Temperature:                    224.4809057054
Temperature Adsorbates:         224.4809057054
Cell temperature:    0.000
Current total kinetic energy:              8958.9053545996 [K]
Current total Nose-Hoover energy:         17324.8699466811 [K]
Current total potential energy:            -68169.4985118645 [K]
	Current Host-Host energy:                     0.0000000000 [K]
	Current Host-Adsorbate energy:           -55889.5217930015 [K]
	Current Host-Cation energy:                   0.0000000000 [K]
	Current Adsorbate-Adsorbate energy:      -12279.9767188631 [K]
	Current Cation-Cation energy:                 0.0000000000 [K]
	Current Adsorbate-Cation energy:              0.0000000000 [K]



[Equilibration] Current cycle: 60000 out of 100000
========================================================================================================

Net charge: 7.74381e-15 (F: 7.77156e-15, A: -2.77556e-17, C: 0)
Current Box:  25.83200   0.00000   0.00000 [A]
               0.00000  25.83200   0.00000 [A]
               0.00000   0.00000  25.83200 [A]
Box-lengths:  25.83200  25.83200  25.83200 Box-angles:   90.00000  90.00000  90.00000 [degrees]
Volume: 17237.49273 [A^3]

Total linear momentum:      -0.4908125750 [A]       0.3819593414 [A]      -0.0709655498 [A]

Loadings per component:
----------------------------------------------------------------------------------------------------------------------------------------------------
Component 0 (benzene), current number of integer/fractional/reaction molecules: 16/0/0, density: 120.29707 [kg/m^3]
	absolute adsorption:  16.00000 [mol/uc],         2.5980 [mol/kg],            202.7674 [mg/g]
	                                                 58.2314 [cm^3 STP/g],         34.5473 [cm^3 STP/cm^3]
	excess adsorption:    16.00000 [mol/uc],         2.5980 [mol/kg],            202.7674 [mg/g]
	                                                 58.2314 [cm^3 STP/g],         34.5473 [cm^3 STP/cm^3]
----------------------------------------------------------------------------------------------------------------------------------------------------
Degrees of freedom: 96 0 96 0
Number of Framework-atoms:    424
[...]
	Block[ 3]            0.00000 [K]
	Block[ 4]            0.00000 [K]
	------------------------------------------------------------------------------
	Average              0.00000 [K] +/-            0.00000 [K]

Average Cation Bend angle inversion energy:
===========================================
	Block[ 0]            0.00000 [K]
	Block[ 1]            0.00000 [K]
	Block[ 2]            0.00000 [K]
	Block[ 3]            0.00000 [K]
	Block[ 4]            0.00000 [K]
	------------------------------------------------------------------------------
	Average              0.00000 [K] +/-            0.00000 [K]

Average Cation Torsion energy:
==============================
	Block[ 0]            0.00000 [K]
	Block[ 1]            0.00000 [K]
	Block[ 2]            0.00000 [K]
	Block[ 3]            0.00000 [K]
	Block[ 4]            0.00000 [K]
	------------------------------------------------------------------------------
	Average              0.00000 [K] +/-            0.00000 [K]

Average Cation Improper Torsion energy:
=======================================
	Block[ 0]            0.00000 [K]
	Block[ 1]            0.00000 [K]
	Block[ 2]            0.00000 [K]
	Block[ 3]            0.00000 [K]
	Block[ 4]            0.00000 [K]
	------------------------------------------------------------------------------
	Average              0.00000 [K] +/-            0.00000 [K]

Average Cation Bond-Bond cross term energy:
=================================================
	Block[ 0]            0.00000 [K]
	Block[ 1]            0.00000 [K]
	Block[ 2]            0.00000 [K]
	Block[ 3]            0.00000 [K]
	Block[ 4]            0.00000 [K]
	------------------------------------------------------------------------------
	Average              0.00000 [K] +/-            0.00000 [K]

Average Cation Bend-Bend cross term energy:
===========================================
	Block[ 0]            0.00000 [K]
	Block[ 1]            0.00000 [K]
	Block[ 2]            0.00000 [K]
	Block[ 3]            0.00000 [K]
	Block[ 4]            0.00000 [K]
	------------------------------------------------------------------------------
	Average              0.00000 [K] +/-            0.00000 [K]

Average Cation Bond-Bend cross term energy:
==============================================
	Block[ 0]            0.00000 [K]
	Block[ 1]            0.00000 [K]
	Block[ 2]            0.00000 [K]
	Block[ 3]            0.00000 [K]
	Block[ 4]            0.00000 [K]
	------------------------------------------------------------------------------
	Average              0.00000 [K] +/-            0.00000 [K]

Average Cation Bond-Torsion cross term energy:
==============================================
	Block[ 0]            0.00000 [K]
	Block[ 1]            0.00000 [K]
	Block[ 2]            0.00000 [K]
	Block[ 3]            0.00000 [K]
	Block[ 4]            0.00000 [K]
	------------------------------------------------------------------------------
	Average              0.00000 [K] +/-            0.00000 [K]

Average Cation Bend-Torsion cross term energy:
==============================================
	Block[ 0]            0.00000 [K]
	Block[ 1]            0.00000 [K]
	Block[ 2]            0.00000 [K]
	Block[ 3]            0.00000 [K]
	Block[ 4]            0.00000 [K]
	------------------------------------------------------------------------------
	Average              0.00000 [K] +/-            0.00000 [K]

Average Cation Intra Van der Waals energy:
==========================================
	Block[ 0]            0.00000 [K]
	Block[ 1]            0.00000 [K]
	Block[ 2]            0.00000 [K]
	Block[ 3]            0.00000 [K]
	Block[ 4]            0.00000 [K]
	------------------------------------------------------------------------------
	Average              0.00000 [K] +/-            0.00000 [K]

Average Cation Intra charge-charge Coulomb energy:
====================================
	Block[ 0]            0.00000 [K]
	Block[ 1]            0.00000 [K]
	Block[ 2]            0.00000 [K]
	Block[ 3]            0.00000 [K]
	Block[ 4]            0.00000 [K]
	------------------------------------------------------------------------------
	Average              0.00000 [K] +/-            0.00000 [K]

Average Cation Intra charge-bonddipole Coulomb energy:
====================================
	Block[ 0]            0.00000 [K]
	Block[ 1]            0.00000 [K]
	Block[ 2]            0.00000 [K]
	Block[ 3]            0.00000 [K]
	Block[ 4]            0.00000 [K]
	------------------------------------------------------------------------------
	Average              0.00000 [K] +/-            0.00000 [K]

Average Cation Intra bonddipole-bonddipole Coulomb energy:
====================================
	Block[ 0]            0.00000 [K]
	Block[ 1]            0.00000 [K]
	Block[ 2]            0.00000 [K]
	Block[ 3]            0.00000 [K]
	Block[ 4]            0.00000 [K]
	------------------------------------------------------------------------------
	Average              0.00000 [K] +/-            0.00000 [K]

Average Host-Host energy:
=========================
	Block[ 0] 0.00000            Van der Waals: 0.00000            Coulomb: 0.00000            [K]
	Block[ 1] 0.00000            Van der Waals: 0.00000            Coulomb: 0.00000            [K]
	Block[ 2] 0.00000            Van der Waals: 0.00000            Coulomb: 0.00000            [K]
	Block[ 3] 0.00000            Van der Waals: 0.00000            Coulomb: 0.00000            [K]
	Block[ 4] 0.00000            Van der Waals: 0.00000            Coulomb: 0.00000            [K]
	------------------------------------------------------------------------------
	Average   0.00000            Van der Waals: 0.000000           Coulomb: 0.00000            [K]
	      +/- 0.00000                       +/- 0.000000                +/- 0.00000            [K]

Average Adsorbate-Adsorbate energy:
===================================
	Block[ 0] -21772.99261       Van der Waals: -21043.76914       Coulomb: -729.22347         [K]
	Block[ 1] -21079.64433       Van der Waals: -20336.84063       Coulomb: -742.80370         [K]
	Block[ 2] -20789.47945       Van der Waals: -20147.69222       Coulomb: -641.78723         [K]
	Block[ 3] -16395.54450       Van der Waals: -15948.98576       Coulomb: -446.55874         [K]
	Block[ 4] -15731.01967       Van der Waals: -15168.80185       Coulomb: -562.21782         [K]
	------------------------------------------------------------------------------
	Average   -19153.73611       Van der Waals: -18529.217922      Coulomb: -624.51819         [K]
	      +/- 3542.41379                    +/- 3408.941616             +/- 153.06283          [K]

Average Cation-Cation energy:
=============================
	Block[ 0] 0.00000            Van der Waals: 0.00000            Coulomb: 0.00000            [K]
	Block[ 1] 0.00000            Van der Waals: 0.00000            Coulomb: 0.00000            [K]
	Block[ 2] 0.00000            Van der Waals: 0.00000            Coulomb: 0.00000            [K]
	Block[ 3] 0.00000            Van der Waals: 0.00000            Coulomb: 0.00000            [K]
	Block[ 4] 0.00000            Van der Waals: 0.00000            Coulomb: 0.00000            [K]
	------------------------------------------------------------------------------
	Average   0.00000            Van der Waals: 0.000000           Coulomb: 0.00000            [K]
	      +/- 0.00000                       +/- 0.000000                +/- 0.00000            [K]

Average Host-Adsorbate energy:
==============================
	Block[ 0] -50801.77169       Van der Waals: -50493.39531       Coulomb: -308.37637         [K]
	Block[ 1] -50737.28780       Van der Waals: -50291.75267       Coulomb: -445.53513         [K]
	Block[ 2] -50194.09683       Van der Waals: -49641.35923       Coulomb: -552.73760         [K]
	Block[ 3] -52711.79386       Van der Waals: -52346.47321       Coulomb: -365.32064         [K]
	Block[ 4] -53028.64466       Van der Waals: -52617.85508       Coulomb: -410.78958         [K]
	------------------------------------------------------------------------------
	Average   -51494.71897       Van der Waals: -51078.167100      Coulomb: -416.55187         [K]
	      +/- 1592.23568                    +/- 1642.780185             +/- 114.02969          [K]

Average Host-Cation energy:
===========================
	Block[ 0] 0.00000            Van der Waals: 0.00000            Coulomb: 0.00000            [K]
	Block[ 1] 0.00000            Van der Waals: 0.00000            Coulomb: 0.00000            [K]
	Block[ 2] 0.00000            Van der Waals: 0.00000            Coulomb: 0.00000            [K]
	Block[ 3] 0.00000            Van der Waals: 0.00000            Coulomb: 0.00000            [K]
	Block[ 4] 0.00000            Van der Waals: 0.00000            Coulomb: 0.00000            [K]
	------------------------------------------------------------------------------
	Average   0.00000            Van der Waals: 0.000000           Coulomb: 0.00000            [K]
	      +/- 0.00000                       +/- 0.000000                +/- 0.00000            [K]

Average Adsorbate-Cation energy:
================================
	Block[ 0] 0.00000            Van der Waals: 0.00000            Coulomb: 0.00000            [K]
	Block[ 1] 0.00000            Van der Waals: 0.00000            Coulomb: 0.00000            [K]
	Block[ 2] 0.00000            Van der Waals: 0.00000            Coulomb: 0.00000            [K]
	Block[ 3] 0.00000            Van der Waals: 0.00000            Coulomb: 0.00000            [K]
	Block[ 4] 0.00000            Van der Waals: 0.00000            Coulomb: 0.00000            [K]
	------------------------------------------------------------------------------
	Average   0.00000            Van der Waals: 0.000000           Coulomb: 0.00000            [K]
	      +/- 0.00000                       +/- 0.000000                +/- 0.00000            [K]

Host polarization energy:
=======================
	Block[ 0]            0.00000 [K]
	Block[ 1]            0.00000 [K]
	Block[ 2]            0.00000 [K]
	Block[ 3]            0.00000 [K]
	Block[ 4]            0.00000 [K]
	------------------------------------------------------------------------------
	Average              0.00000 [K] +/-            0.00000 [K]

Adsorbate polarization energy:
=======================
	Block[ 0]            0.00000 [K]
	Block[ 1]            0.00000 [K]
	Block[ 2]            0.00000 [K]
	Block[ 3]            0.00000 [K]
	Block[ 4]            0.00000 [K]
	------------------------------------------------------------------------------
	Average              0.00000 [K] +/-            0.00000 [K]

Cation polarization energy:
=======================
	Block[ 0]            0.00000 [K]
	Block[ 1]            0.00000 [K]
	Block[ 2]            0.00000 [K]
	Block[ 3]            0.00000 [K]
	Block[ 4]            0.00000 [K]
	------------------------------------------------------------------------------
	Average              0.00000 [K] +/-            0.00000 [K]

Host back-polarization energy:
=======================
	Block[ 0]            0.00000 [K]
	Block[ 1]            0.00000 [K]
	Block[ 2]            0.00000 [K]
	Block[ 3]            0.00000 [K]
	Block[ 4]            0.00000 [K]
	------------------------------------------------------------------------------
	Average              0.00000 [K] +/-            0.00000 [K]

Adsorbate back-polarization energy:
=======================
	Block[ 0]            0.00000 [K]
	Block[ 1]            0.00000 [K]
	Block[ 2]            0.00000 [K]
	Block[ 3]            0.00000 [K]
	Block[ 4]            0.00000 [K]
	------------------------------------------------------------------------------
	Average              0.00000 [K] +/-            0.00000 [K]

Cation back-polarization energy:
=======================
	Block[ 0]            0.00000 [K]
	Block[ 1]            0.00000 [K]
	Block[ 2]            0.00000 [K]
	Block[ 3]            0.00000 [K]
	Block[ 4]            0.00000 [K]
	------------------------------------------------------------------------------
	Average              0.00000 [K] +/-            0.00000 [K]

Tail-correction energy:
=======================
	Block[ 0]            0.00000 [K]
	Block[ 1]            0.00000 [K]
	Block[ 2]            0.00000 [K]
	Block[ 3]            0.00000 [K]
	Block[ 4]            0.00000 [K]
	------------------------------------------------------------------------------
	Average              0.00000 [K] +/-            0.00000 [K]

Distance-constraints energy:
=======================
	Block[ 0]            0.00000 [K]
	Block[ 1]            0.00000 [K]
	Block[ 2]            0.00000 [K]
	Block[ 3]            0.00000 [K]
	Block[ 4]            0.00000 [K]
	------------------------------------------------------------------------------
	Average              0.00000 [K] +/-            0.00000 [K]

Angle-constraints energy:
=======================
	Block[ 0]            0.00000 [K]
	Block[ 1]            0.00000 [K]
	Block[ 2]            0.00000 [K]
	Block[ 3]            0.00000 [K]
	Block[ 4]            0.00000 [K]
	------------------------------------------------------------------------------
	Average              0.00000 [K] +/-            0.00000 [K]

Dihedral-constraints energy:
=======================
	Block[ 0]            0.00000 [K]
	Block[ 1]            0.00000 [K]
	Block[ 2]            0.00000 [K]
	Block[ 3]            0.00000 [K]
	Block[ 4]            0.00000 [K]
	------------------------------------------------------------------------------
	Average              0.00000 [K] +/-            0.00000 [K]

Inversion-bend constraints energy:
=======================
	Block[ 0]            0.00000 [K]
	Block[ 1]            0.00000 [K]
	Block[ 2]            0.00000 [K]
	Block[ 3]            0.00000 [K]
	Block[ 4]            0.00000 [K]
	------------------------------------------------------------------------------
	Average              0.00000 [K] +/-            0.00000 [K]

Out-of-plane-distance constraints energy:
=======================
	Block[ 0]            0.00000 [K]
	Block[ 1]            0.00000 [K]
	Block[ 2]            0.00000 [K]
	Block[ 3]            0.00000 [K]
	Block[ 4]            0.00000 [K]
	------------------------------------------------------------------------------
	Average              0.00000 [K] +/-            0.00000 [K]

Exclusion-constraints energy:
=======================
	Block[ 0]            0.00000 [K]
	Block[ 1]            0.00000 [K]
	Block[ 2]            0.00000 [K]
	Block[ 3]            0.00000 [K]
	Block[ 4]            0.00000 [K]
	------------------------------------------------------------------------------
	Average              0.00000 [K] +/-            0.00000 [K]

Total energy:
=============
	Block[ 0]       -72574.76430 [K]
	Block[ 1]       -71816.93213 [K]
	Block[ 2]       -70983.57628 [K]
	Block[ 3]       -69107.33836 [K]
	Block[ 4]       -68759.66433 [K]
	------------------------------------------------------------------------------
	Average         -70648.45508 [K] +/-         2070.94840 [K]

Number of molecules:
====================

Component 0 [benzene]
-------------------------------------------------------------
	Block[ 0] 16.00000           [-]
	Block[ 1] 16.00000           [-]
	Block[ 2] 16.00000           [-]
	Block[ 3] 16.00000           [-]
	Block[ 4] 16.00000           [-]
	------------------------------------------------------------------------------
	Average loading absolute                             16.0000000000 +/-       0.0000000000 [-]
	Average loading absolute [molecules/unit cell]       16.0000000000 +/-       0.0000000000 [-]
	Average loading absolute [mol/kg framework]                  2.5979954802 +/-       0.0000000000 [-]
	Average loading absolute [milligram/gram framework]        202.7674159615 +/-       0.0000000000 [-]
	Average loading absolute [cm^3 (STP)/gr framework]          58.2314076859 +/-       0.0000000000 [-]
	Average loading absolute [cm^3 (STP)/cm^3 framework]        34.5472746700 +/-       0.0000000000 [-]

	Block[ 0] 16.00000           [-]
	Block[ 1] 16.00000           [-]
	Block[ 2] 16.00000           [-]
	Block[ 3] 16.00000           [-]
	Block[ 4] 16.00000           [-]
	------------------------------------------------------------------------------
	Average loading excess                             16.0000000000 +/-       0.0000000000 [-]
	Average loading excess [molecules/unit cell]       16.0000000000 +/-       0.0000000000 [-]
	Average loading excess [mol/kg framework]                    2.5979954802 +/-       0.0000000000 [-]
	Average loading excess [milligram/gram framework]          202.7674159615 +/-       0.0000000000 [-]
	Average loading excess [cm^3 (STP)/gr framework]            58.2314076859 +/-       0.0000000000 [-]
	Average loading excess [cm^3 (STP)/cm^3 framework]          34.5472746700 +/-       0.0000000000 [-]


Average Widom Rosenbluth factor:
================================
	Block[ 0] 0 [-]
	Block[ 1] 0 [-]
	Block[ 2] 0 [-]
	Block[ 3] 0 [-]
	Block[ 4] 0 [-]
	------------------------------------------------------------------------------
	[benzene] Average Widom Rosenbluth-weight:   0 +/- 0.000000 [-]

Average Widom chemical potential:
=================================
	Block[ 0] 0 [-]
	Block[ 1] 0 [-]
	Block[ 2] 0 [-]
	Block[ 3] 0 [-]
	Block[ 4] 0 [-]
	------------------------------------------------------------------------------
	[benzene] Average chemical potential:   0 +/- 0.000000 [K]

Average Widom Ideal-gas contribution:
=====================================
	Block[ 0] 0 [-]
	Block[ 1] 0 [-]
	Block[ 2] 0 [-]
	Block[ 3] 0 [-]
	Block[ 4] 0 [-]
	------------------------------------------------------------------------------
	[benzene] Average Widom Ideal-gas chemical potential:   0 +/- 0.000000 [-]

Average Widom excess contribution:
==================================
	Block[ 0] 0 [-]
	Block[ 1] 0 [-]
	Block[ 2] 0 [-]
	Block[ 3] 0 [-]
	Block[ 4] 0 [-]
	------------------------------------------------------------------------------
	[benzene] Average Widom excess chemical potential:   0 +/- 0.000000 [-]

Average Gibbs Widom Rosenbluth factor:
======================================
	Block[ 0] 0 [-]
	Block[ 1] 0 [-]
	Block[ 2] 0 [-]
	Block[ 3] 0 [-]
	Block[ 4] 0 [-]
	------------------------------------------------------------------------------
	[benzene] Average Gibbs Widom Rosenbluth-weight:   0 +/- 0.000000 [-]

Average Gibbs Widom chemical potential:
=======================================
	Block[ 0] 0 [-]
	Block[ 1] 0 [-]
	Block[ 2] 0 [-]
	Block[ 3] 0 [-]
	Block[ 4] 0 [-]
	------------------------------------------------------------------------------
	[benzene] Average Gibbs chemical potential:   0 +/- 0.000000 [K]

Average Gibbs Widom Ideal-gas contribution:
===========================================
	Block[ 0] 0 [-]
	Block[ 1] 0 [-]
	Block[ 2] 0 [-]
	Block[ 3] 0 [-]
	Block[ 4] 0 [-]
	------------------------------------------------------------------------------
	[benzene] Average Gibbs Ideal-gas chemical potential:   0 +/- 0.000000 [-]

Average Gibbs Widom excess contribution:
===========================================
	Block[ 0] 0 [-]
	Block[ 1] 0 [-]
	Block[ 2] 0 [-]
	Block[ 3] 0 [-]
	Block[ 4] 0 [-]
	------------------------------------------------------------------------------
	[benzene] Average Gibbs excess chemical potential:   0 +/- 0.000000 [-]

Average Henry coefficient:
==========================
	Block[ 0] 0 [mol/kg/Pa]
	Block[ 1] 0 [mol/kg/Pa]
	Block[ 2] 0 [mol/kg/Pa]
	Block[ 3] 0 [mol/kg/Pa]
	Block[ 4] 0 [mol/kg/Pa]
	------------------------------------------------------------------------------
	[benzene] Average Henry coefficient:  0 +/- 0 [mol/kg/Pa]

Average adsorption energy <U_gh>_1-<U_h>_0 obtained from Widom-insertion:
(Note: the total heat of adsorption is dH=<U_gh>_1-<U_h>_0 - <U_g> - RT)
=========================================================================

Simulation finished,  0 warnings


Tue May 18 15:55:31 2021
Simulation finished on Tuesday, May 18.
The end time was 03:55 PM.

